1
Lattice="24.984408 0.0 0.0 0.0 25.659818 0.0 0.0 0.0 14.892215" Properties=species:S:1:pos:R:3:magmoms:R:1 energy=-1.1099609680170317 config_type=IsolatedAtom free_energy=-1.1099609680170317 dipole="2.6398200765913837e-15 4.019313941832918e-15 2.692961500147922e-15" magmom=1.000000000000002 pbc="F F F"
H       12.49220400      12.82990900       7.44610750       0.26197290

1
Lattice="24.984408 0.0 0.0 0.0 25.659818 0.0 0.0 0.0 14.892215" Properties=species:S:1:pos:R:3:magmoms:R:1 energy=-1.368747740830329 config_type=IsolatedAtom free_energy=-1.368747740830329 dipole="-1.921663240931409e-15 -1.3848170850796257e-14 -4.189784837367412e-15" magmom=1.9999999998073419 pbc="F F F"
C       12.49220400      12.82990900       7.44610750       0.65643849

1
Lattice="24.984408 0.0 0.0 0.0 25.659818 0.0 0.0 0.0 14.892215" Properties=species:S:1:pos:R:3:magmoms:R:1 energy=-2.179056463567101 config_type=IsolatedAtom free_energy=-2.179056463567101 dipole="-1.8640815524768363e-14 -8.44037478488792e-15 2.1962035174163504e-14" magmom=1.999999999954572 pbc="F F F"
O       12.49220400      12.82990900       7.44610750       1.11502299

1
Lattice="24.984408 0.0 0.0 0.0 25.659818 0.0 0.0 0.0 14.892215" Properties=species:S:1:pos:R:3:magmoms:R:1 energy=-3.171558113518122 config_type=IsolatedAtom free_energy=-3.171558113518122 dipole="9.353173105859967e-15 4.021341635221723e-14 3.546459344891511e-14" magmom=3.0000000002584932 pbc="F F F"
N       12.49220400      12.82990900       7.44610750       1.04995997

1
Lattice="24.984408 0.0 0.0 0.0 25.659818 0.0 0.0 0.0 14.892215" Properties=species:S:1:pos:R:3:magmoms:R:1 energy=-0.313913195772784 config_type=IsolatedAtom free_energy=-0.313913195772784 dipole="-1.5930943820429827e-14 2.9372677774997465e-15 1.1142846695321068e-14" magmom=1.000000000201517 pbc="F F F"
Cl      12.49220400      12.82990900       7.44610750       0.41317187

1
Lattice="24.984408 0.0 0.0 0.0 25.659818 0.0 0.0 0.0 14.892215" Properties=species:S:1:pos:R:3:magmoms:R:1 energy=-4.182343 config_type=IsolatedAtom free_energy=-4.182343 dipole="0.0 0.0 0.0" magmom=4.0 pbc="F F F"
Fe      12.49220400      12.82990900       7.44610800       4.00000000