1
Lattice="24.984408 0.0 0.0 0.0 25.659818 0.0 0.0 0.0 14.892215" Properties=species:S:1:pos:R:3:magmoms:R:1 energy=-1.368747740830329 free_energy=-1.368747740830329 dipole="-1.921663240931409e-15 -1.3848170850796257e-14 -4.189784837367412e-15" magmom=1.9999999998073419 pbc="F F F"
C       12.49220400      12.82990900       7.44610750       0.65643849
