1
Lattice="24.984408 0.0 0.0 0.0 25.659818 0.0 0.0 0.0 14.892215" Properties=species:S:1:pos:R:3:magmoms:R:1:REF_forces:R:3 REF_energy=-0.313913195772784 config_type=IsolatedAtom  dipole="-1.5930943820429827e-14 2.9372677774997465e-15 1.1142846695321068e-14" magmom=1.000000000201517 pbc="F F F"
Cl      12.49220400      12.82990900       7.44610750       0.41317187       0.0       0.0       0.0
