76
Lattice="24.984408 0.0 0.0 0.0 25.659818 0.0 0.0 0.0 14.892215" Properties=species:S:1:pos:R:3:initial_magmoms:R:1:initial_charges:R:1:forces:R:3:magmoms:R:1 energy=-498.591891746408 dipole="0.41206941966929633 1.0394847419405568 -0.9903567142551857" magmom=3.000745507672381 free_energy=-498.591891746408 pbc="F F F"
O       10.19787900       5.83492200       7.67281500       0.00000000       0.00000000       0.04872746      -0.01437542       0.06189615      -0.00000469
C       10.74279200       6.32996200       8.82279800       0.00000000       0.00000000      -0.00850288       0.02428037      -0.01416755       0.00002031
O       10.63874500       5.76392800       9.89221500       0.00000000       0.00000000      -0.01911580      -0.00689079       0.01987961       0.00005777
C       11.46960500       7.64183900       8.62065500       0.00000000       0.00000000       0.00345421      -0.00786866      -0.00857502       0.00038179
C       11.83437300       8.01225400       7.17045500       0.00000000       0.00000000      -0.01040841      -0.00503102      -0.01762981      -0.00015469
C       12.77078600       9.17892700       7.09928000       0.00000000       0.00000000      -0.02472786      -0.01470512      -0.03028952       0.00312426
C       14.14458200       9.14222300       7.12347600       0.00000000       0.00000000       0.00613864      -0.00274279       0.00232046       0.00283898
C       15.04605800       7.95468300       7.21484100       0.00000000       0.00000000       0.00483078      -0.03871742      -0.01262266      -0.00016117
C       14.58977200      10.51532700       7.06326900       0.00000000       0.00000000       0.01169407       0.00743169       0.03689580       0.00077876
C       15.92450700      10.87798200       7.02631600       0.00000000       0.00000000       0.02318713      -0.01267742       0.00692683       0.00188007
C       16.39488600      12.17787600       6.94437300       0.00000000       0.00000000       0.02196061       0.02510559      -0.00109352       0.00083051
N       15.59883700      13.29919500       6.98856100       0.00000000       0.00000000      -0.03397148       0.03501672      -0.02293545      -0.00123744
C       16.46995600      14.36948000       6.99140400       0.00000000       0.00000000      -0.01498138      -0.00546125       0.02996666       0.00067661
C       16.09534800      15.70145700       7.02862200       0.00000000       0.00000000      -0.01014663      -0.01182134       0.01999701       0.00240719
C       14.79199000      16.16655400       7.03785000       0.00000000       0.00000000       0.02950286      -0.01140887      -0.00012881       0.00073279
N       13.66723500      15.37486700       7.04359900       0.00000000       0.00000000       0.02764329      -0.04024378       0.01565841      -0.00172881
Fe      13.59672300      13.37330100       7.30852200       3.00000000       0.00000000       0.07150548      -0.01452697      -0.01307089       2.38855250
Cl      13.61676100      13.34850100       9.57347000       0.00000000       0.00000000      -0.02332592       0.00882818       0.00281189       0.15287891
N       13.52062400      11.38244500       7.02613400       0.00000000       0.00000000       0.02589693       0.02843352       0.00397041      -0.00187595
C       12.40063900      10.57801800       7.04116900       0.00000000       0.00000000       0.01914431       0.01973360       0.04087216       0.00081084
C       11.09553700      11.04071800       7.02502900       0.00000000       0.00000000       0.01310288       0.01325120       0.00928523       0.00180942
C       10.72780600      12.37875200       7.02555000       0.00000000       0.00000000      -0.01519317      -0.01691883       0.01303095       0.00080487
N       11.60450300      13.44353800       7.02673200       0.00000000       0.00000000      -0.01599351      -0.04265163       0.06918241      -0.00106044
C       10.81080700      14.57103100       7.06411200       0.00000000       0.00000000      -0.01167833       0.01306639       0.00878821       0.00061770
C       11.26801600      15.87811000       7.06908700       0.00000000       0.00000000       0.02807611      -0.02351047      -0.00021250       0.00251031
C       12.60226500      16.25447700       7.04780800       0.00000000       0.00000000      -0.01528784       0.01372601      -0.00171254       0.00040902
C       13.05626800      17.62240300       7.03936600       0.00000000       0.00000000       0.01435835       0.03056549      -0.02709808       0.00266555
C       12.18698200      18.83099900       6.96169200       0.00000000       0.00000000      -0.02706105       0.00180310       0.01567081      -0.00015326
C       14.43973800      17.57411200       7.04635100       0.00000000       0.00000000      -0.02023105       0.01473815      -0.01325048       0.00279430
C       15.40296600      18.65952700       7.01053400       0.00000000       0.00000000      -0.00021426       0.00860238      -0.00497768      -0.00106352
C       15.21639900      19.92680300       7.42455000       0.00000000       0.00000000      -0.00326055      -0.01984556       0.02344758       0.00276771
C        9.41230300      14.21632800       7.10366000       0.00000000       0.00000000      -0.00919143      -0.01613189       0.00566635       0.00258324
C        8.27681400      15.18168500       7.20094600       0.00000000       0.00000000      -0.00060307      -0.00049790       0.00056315      -0.00015710
C        9.35799000      12.84232500       7.07157600       0.00000000       0.00000000      -0.01372342       0.00039039      -0.01029114       0.00274733
C        8.13025500      11.98577500       7.10544100       0.00000000       0.00000000      -0.03232704       0.02682033       0.00502003      -0.00018495
C        7.42297000      11.86838200       5.72997100       0.00000000       0.00000000       0.02800557      -0.00748802       0.01037454       0.00042439
C        6.21589600      10.95042300       5.83786500       0.00000000       0.00000000       0.02300432       0.04458017       0.00759181       0.00007253
O        5.00000000      11.55803500       6.02340500       0.00000000       0.00000000      -0.01979689       0.11839859       0.01166830       0.00003746
O        6.28515000       9.74475200       5.81665700       0.00000000       0.00000000      -0.01868770      -0.02132643      -0.00674242       0.00010349
C       17.83991800      13.92560000       6.95218600       0.00000000       0.00000000      -0.00750382      -0.00111971       0.00507527       0.00236281
C       19.04720600      14.80364500       6.91301000       0.00000000       0.00000000       0.00618537       0.00490803      -0.00836557      -0.00009580
C       17.80012100      12.54499000       6.89225100       0.00000000       0.00000000      -0.00052032       0.01447153       0.01186356       0.00271939
C       18.95989500      11.67266000       6.80590500       0.00000000       0.00000000      -0.01091534       0.00736798      -0.00047425      -0.00103023
C       19.05185500      10.49240400       6.16876700       0.00000000       0.00000000       0.01765771       0.01898034      -0.03539033       0.00270079
H        9.75417000       5.00000000       7.93086700       0.00000000       0.00000000      -0.00645383       0.01505131      -0.00979521       0.00000198
H       10.83649500       8.42412100       9.07040800       0.00000000       0.00000000       0.01039664       0.00833756       0.00228554      -0.00000056
H       12.36472400       7.59673000       9.25571400       0.00000000       0.00000000       0.02327229       0.00125883       0.00318636      -0.00000540
H       12.30541700       7.14452900       6.68554900       0.00000000       0.00000000      -0.00723489       0.00022692       0.01441519       0.00013334
H       10.91369000       8.20613700       6.60197600       0.00000000       0.00000000       0.01897161       0.00233717      -0.01983081       0.00001806
H       15.81859600       7.96162200       6.43128700       0.00000000       0.00000000      -0.01430532       0.01619871      -0.00347493       0.00018376
H       15.57225200       7.92307100       8.18197600       0.00000000       0.00000000      -0.00392730       0.00711888      -0.00141240       0.00033663
H       14.48619700       7.01597600       7.11702900       0.00000000       0.00000000      -0.01024167       0.00387987      -0.00139036      -0.00003682
H       16.66123100      10.08026200       7.07607500       0.00000000       0.00000000       0.01628370       0.00131902       0.00312027      -0.00005644
H       16.89515100      16.43831100       7.05145900       0.00000000       0.00000000      -0.02561792       0.02021057      -0.00305783      -0.00007280
H       10.30108600      10.29520600       7.02827700       0.00000000       0.00000000      -0.00277422       0.01634936      -0.00492286      -0.00006113
H       10.51890500      16.66796500       7.09623000       0.00000000       0.00000000       0.02386278       0.00509717      -0.00263462      -0.00007711
H       11.21284200      18.61080300       6.50604300       0.00000000       0.00000000      -0.00936746      -0.01150251       0.01276981       0.00000499
H       11.99575500      19.26889200       7.95468200       0.00000000       0.00000000      -0.01108342      -0.00623053      -0.00113433       0.00029433
H       12.67435700      19.60854300       6.35629900       0.00000000       0.00000000      -0.00893142       0.02277409       0.00585957       0.00013968
H       16.38561700      18.40908200       6.59917700       0.00000000       0.00000000      -0.00204589       0.00664079      -0.00114237       0.00003158
H       14.29158200      20.26426700       7.89217800       0.00000000       0.00000000       0.03080377       0.00336532      -0.01837699      -0.00007095
H       16.01714200      20.65981800       7.32939900       0.00000000       0.00000000      -0.00240085       0.01997814       0.00826055      -0.00009631
H        8.51504900      16.01758500       7.87357600       0.00000000       0.00000000      -0.01299950      -0.00464278       0.00419598       0.00018021
H        8.01185100      15.61879000       6.22450000       0.00000000       0.00000000       0.00921407      -0.01530034      -0.00559392       0.00033938
H        7.37876700      14.68999000       7.59954200       0.00000000       0.00000000      -0.02269180       0.01408205      -0.02014475      -0.00007534
H        8.36170200      10.97222300       7.46239000       0.00000000       0.00000000       0.00730141       0.02423515      -0.01414443       0.00003856
H        7.41834600      12.40827100       7.83337000       0.00000000       0.00000000      -0.00336915      -0.00022936       0.01453685       0.00000153
H        7.14966100      12.87124700       5.36405100       0.00000000       0.00000000       0.00630234      -0.04099463      -0.00298094      -0.00000018
H        8.10889800      11.41763700       5.00000000       0.00000000       0.00000000       0.00334842       0.04142780       0.01257363      -0.00001189
H        5.11129500      12.52612700       6.00794800       0.00000000       0.00000000       0.00446418      -0.02421032      -0.02265712      -0.00000028
H       19.88050200      14.36500300       7.48006900       0.00000000       0.00000000      -0.00901573      -0.01917551       0.00160876      -0.00002364
H       19.40584300      14.94472700       5.88099700       0.00000000       0.00000000      -0.00111995       0.01894669       0.00510238       0.00038751
H       18.85183200      15.79754100       7.33525700       0.00000000       0.00000000       0.00602292      -0.01201375      -0.00260270       0.00006970
H       19.86269000      12.06037100       7.29221900       0.00000000       0.00000000      -0.01220699      -0.01234792      -0.00709804      -0.00003897
H       18.22273900      10.07572100       5.59649800       0.00000000       0.00000000       0.01879743      -0.01136372       0.00067092      -0.00007431
H       19.98440800       9.92850900       6.16871000       0.00000000       0.00000000       0.00729132       0.00511417       0.00534994      -0.00006895
76
Lattice="24.984408 0.0 0.0 0.0 25.659818 0.0 0.0 0.0 14.892215" Properties=species:S:1:pos:R:3:initial_magmoms:R:1:initial_charges:R:1:forces:R:3:magmoms:R:1 energy=-498.5928169709498 dipole="0.4146772490109728 1.04073845890263 -0.992548710038458" magmom=3.0000542886353223 free_energy=-498.5928169709498 pbc="F F F"
O       10.19857511       5.83471664       7.67369923       0.00000000       0.00000000       0.04130460      -0.00595719       0.02071197      -0.00000490
C       10.74267053       6.33030886       8.82259561       0.00000000       0.00000000      -0.00379788      -0.00514202       0.04715015       0.00002042
O       10.63847192       5.76382956       9.89249899       0.00000000       0.00000000      -0.01309860       0.01807812      -0.01174902       0.00005899
C       11.46965435       7.64172659       8.62053250       0.00000000       0.00000000       0.00851229       0.00353777      -0.00274079       0.00038393
C       11.83422431       8.01218213       7.17020315       0.00000000       0.00000000      -0.00665575      -0.00268726      -0.00682456      -0.00015484
C       12.77043274       9.17871693       7.09884729       0.00000000       0.00000000       0.00378065       0.00544992      -0.02163236       0.00314321
C       14.14466969       9.14218382       7.12350915       0.00000000       0.00000000      -0.00737214      -0.00723012       0.00159896       0.00286350
C       15.04612701       7.95412989       7.21466068       0.00000000       0.00000000      -0.00128131      -0.00967684      -0.00211137      -0.00016114
C       14.58993906      10.51543317       7.06379608       0.00000000       0.00000000       0.01518855       0.00014206       0.02835677       0.00079266
C       15.92483824      10.87780089       7.02641495       0.00000000       0.00000000       0.01936627       0.01657358       0.00583708       0.00188574
C       16.39519972      12.17823465       6.94435738       0.00000000       0.00000000      -0.00645768       0.00292321      -0.00015642       0.00084645
N       15.59835169      13.29969524       6.98823335       0.00000000       0.00000000      -0.00709169       0.00774449      -0.02086563      -0.00114688
C       16.46974198      14.36940198       6.99183210       0.00000000       0.00000000      -0.00728464       0.00269020       0.02336034       0.00069629
C       16.09520305      15.70128812       7.02890767       0.00000000       0.00000000       0.01306029      -0.00069460       0.01852989       0.00240439
C       14.79241147      16.16639102       7.03784816       0.00000000       0.00000000      -0.01166730      -0.00124353       0.00139150       0.00075000
N       13.66762990      15.37429209       7.04382269       0.00000000       0.00000000       0.00746737       0.00343414       0.00985696      -0.00162843
Fe      13.59774451      13.37309347       7.30833527       3.00000000       0.00000000       0.04743490      -0.01052551      -0.00955276       2.38707953
Cl      13.61642777      13.34862712       9.57351017       0.00000000       0.00000000      -0.02144061       0.00916852       0.00316321       0.15301742
N       13.52099396      11.38285119       7.02619072       0.00000000       0.00000000       0.02427213       0.01169324       0.00927963      -0.00178558
C       12.40091249      10.57829991       7.04175289       0.00000000       0.00000000       0.01404179       0.01343288       0.02925240       0.00082950
C       11.09572418      11.04090730       7.02516165       0.00000000       0.00000000       0.00990949      -0.00237122       0.00991956       0.00181941
C       10.72758895      12.37851030       7.02573616       0.00000000       0.00000000      -0.01653563      -0.00397909       0.01536009       0.00081273
N       11.60427452      13.44292869       7.02772032       0.00000000       0.00000000      -0.01679920      -0.01577174       0.06648674      -0.00096690
C       10.81064017      14.57121766       7.06423755       0.00000000       0.00000000      -0.00186923      -0.02659090       0.01281069       0.00063150
C       11.26841709      15.87777414       7.06908396       0.00000000       0.00000000       0.00338402       0.00006956       0.00061975       0.00251343
C       12.60204660      16.25467309       7.04778354       0.00000000       0.00000000       0.03143195      -0.00434762      -0.00208255       0.00042256
C       13.05647312      17.62283965       7.03897888       0.00000000       0.00000000      -0.00852476       0.00984953      -0.02074584       0.00267701
C       12.18659541      18.83102476       6.96191587       0.00000000       0.00000000      -0.00860629       0.00939134      -0.00044369      -0.00015339
C       14.43944898      17.57432254       7.04616171       0.00000000       0.00000000       0.00704170       0.00397626      -0.01451111       0.00280489
C       15.40296294      18.65964989       7.01046289       0.00000000       0.00000000      -0.00334121      -0.00379010      -0.00559965      -0.00106417
C       15.21635242      19.92651949       7.42488497       0.00000000       0.00000000       0.02166070      -0.00154446       0.01420953       0.00277086
C        9.41217169      14.21609754       7.10374095       0.00000000       0.00000000      -0.00810922       0.00032345       0.00452635       0.00258489
C        8.27680538      15.18167789       7.20095405       0.00000000       0.00000000      -0.00278523      -0.00625274       0.00004173      -0.00015712
C        9.35779395      12.84233058       7.07142898       0.00000000       0.00000000      -0.01654823      -0.00520512      -0.00758668       0.00275203
C        8.12979319      11.98615815       7.10551271       0.00000000       0.00000000      -0.01310311       0.01722190       0.00338053      -0.00018510
C        7.42337008      11.86827503       5.73011921       0.00000000       0.00000000       0.01101275      -0.00022443       0.01725869       0.00042340
C        6.21622463      10.95105986       5.83797345       0.00000000       0.00000000      -0.00727874      -0.02398207       0.00695146       0.00007235
O        4.99971719      11.55972641       6.02357169       0.00000000       0.00000000       0.00236942       0.00882483       0.01091271       0.00003735
O        6.28488303       9.74444734       5.81656068       0.00000000       0.00000000      -0.02676731       0.06038900      -0.00162260       0.00010364
C       17.83981080      13.92558400       6.95225850       0.00000000       0.00000000      -0.00442221       0.01512510       0.00632488       0.00238226
C       19.04729436      14.80371511       6.91289049       0.00000000       0.00000000      -0.00094320      -0.00540337      -0.00189938      -0.00009612
C       17.80011357      12.54519674       6.89242048       0.00000000       0.00000000      -0.00071423       0.00752706       0.00880099       0.00274269
C       18.95973907      11.67276526       6.80589822       0.00000000       0.00000000      -0.00982780      -0.00121079      -0.00722161      -0.00103541
C       19.05210725      10.49267515       6.16826142       0.00000000       0.00000000       0.01431647       0.02429547      -0.02504471       0.00271300
H        9.75407780       5.00021502       7.93072707       0.00000000       0.00000000      -0.00891062       0.00594239      -0.00090371       0.00000203
H       10.83664352       8.42424011       9.07044065       0.00000000       0.00000000       0.01315093       0.00542710       0.00030212      -0.00000060
H       12.36505646       7.59674798       9.25575952       0.00000000       0.00000000       0.01512505       0.00058718      -0.00333342      -0.00000545
H       12.30531364       7.14453224       6.68575493       0.00000000       0.00000000      -0.00420320      -0.00512449       0.00966504       0.00013407
H       10.91396102       8.20617039       6.60169270       0.00000000       0.00000000       0.00923511       0.00234230      -0.02340521       0.00001848
H       15.81839164       7.96185341       6.43123736       0.00000000       0.00000000      -0.00843481       0.01287297      -0.00911755       0.00018485
H       15.57219590       7.92317270       8.18195582       0.00000000       0.00000000      -0.00405901       0.00446852      -0.00356476       0.00033767
H       14.48605069       7.01603143       7.11700914       0.00000000       0.00000000      -0.01477094      -0.00739091      -0.00307636      -0.00003631
H       16.66146362      10.08028084       7.07611958       0.00000000       0.00000000       0.02106702      -0.00360028       0.00380271      -0.00005708
H       16.89478503      16.43859972       7.05141532       0.00000000       0.00000000      -0.02612494       0.01473441      -0.00228710      -0.00007305
H       10.30104637      10.29543956       7.02820667       0.00000000       0.00000000       0.00210506       0.01637737      -0.00519906      -0.00006159
H       10.51924590      16.66803782       7.09619236       0.00000000       0.00000000       0.02911000      -0.00300864      -0.00345724      -0.00007766
H       11.21270818      18.61063868       6.50622543       0.00000000       0.00000000      -0.01350890      -0.01246007       0.01052441       0.00000533
H       11.99559667      19.26880299       7.95466580       0.00000000       0.00000000      -0.01253250      -0.00413947       0.00709014       0.00029474
H       12.67422941      19.60886834       6.35638271       0.00000000       0.00000000      -0.01631595       0.01562021       0.01191407       0.00013985
H       16.38558777      18.40917687       6.59916068       0.00000000       0.00000000      -0.00134562       0.00623513      -0.00178930       0.00003190
H       14.29202205      20.26431508       7.89191547       0.00000000       0.00000000       0.01408507       0.00645247      -0.00963725      -0.00007103
H       16.01710770      20.66010340       7.32951701       0.00000000       0.00000000      -0.01031896       0.00985574       0.00970504      -0.00009648
H        8.51486329      16.01751867       7.87363594       0.00000000       0.00000000      -0.01141580      -0.00359105       0.00456857       0.00017954
H        8.01198263      15.61857142       6.22442009       0.00000000       0.00000000       0.00990640      -0.01359441      -0.00672350       0.00033858
H        7.37844283      14.69019117       7.59925422       0.00000000       0.00000000      -0.02084302       0.01380521      -0.02007776      -0.00007465
H        8.36180631      10.97256922       7.46218794       0.00000000       0.00000000       0.00542890       0.02492925      -0.01286241       0.00003856
H        7.41829787      12.40826772       7.83357767       0.00000000       0.00000000      -0.01036467       0.00406481       0.01835409       0.00000233
H        7.14975103      12.87066136       5.36400842       0.00000000       0.00000000       0.00470608      -0.03088172      -0.00498363      -0.00000017
H        8.10894583      11.41822883       5.00017962       0.00000000       0.00000000       0.01475494       0.03105476       0.00514571      -0.00001186
H        5.11135877      12.52578114       6.00762433       0.00000000       0.00000000       0.01573936       0.07024143      -0.02409801      -0.00000029
H       19.88037320      14.36472906       7.48009198       0.00000000       0.00000000      -0.00932380      -0.01800991       0.00011829      -0.00002286
H       19.40582700      14.94499767       5.88106989       0.00000000       0.00000000       0.00044416       0.01805300      -0.00019235       0.00038923
H       18.85191804      15.79736938       7.33521982       0.00000000       0.00000000       0.00503487      -0.00664957       0.00028854       0.00007011
H       19.86251561      12.06019460       7.29211760       0.00000000       0.00000000      -0.00831465      -0.00941209      -0.00410090      -0.00003800
H       18.22300753      10.07555866       5.59650758       0.00000000       0.00000000       0.01596491      -0.01184862      -0.00280749      -0.00007468
H       19.98451216       9.92858206       6.16878643       0.00000000       0.00000000       0.00876472       0.00624158       0.00446052      -0.00006937
76
Lattice="24.984408 0.0 0.0 0.0 25.659818 0.0 0.0 0.0 14.892215" Properties=species:S:1:pos:R:3:initial_magmoms:R:1:initial_charges:R:1:forces:R:3:magmoms:R:1 energy=-498.594163669572 dipole="0.41793898656362294 1.0381148707281167 -0.994030329956886" magmom=3.0001005163227235 free_energy=-498.594163669572 pbc="F F F"
O       10.20035923       5.83433906       7.67520703       0.00000000       0.00000000       0.02156923      -0.00593902      -0.02771003      -0.00000477
C       10.74244064       6.33058345       8.82348992       0.00000000       0.00000000       0.01767732       0.01230065       0.01282433       0.00002066
O       10.63784617       5.76414858       9.89254375       0.00000000       0.00000000      -0.01620029       0.00082792       0.05281996       0.00005962
C       11.46991420       7.64168230       8.62032668       0.00000000       0.00000000       0.01042152       0.01354852       0.01385762       0.00038657
C       11.83389497       8.01203560       7.16975158       0.00000000       0.00000000       0.00452768       0.00557321       0.00366926      -0.00015598
C       12.77011831       9.17860641       7.09783483       0.00000000       0.00000000       0.02489497       0.02445924      -0.00202920       0.00316316
C       14.14459408       9.14196623       7.12358532       0.00000000       0.00000000      -0.00436161      -0.00295876       0.00114237       0.00288345
C       15.04617547       7.95326505       7.21440364       0.00000000       0.00000000      -0.01435006       0.02351226       0.00745606      -0.00016125
C       14.59049325      10.51555820       7.06507729       0.00000000       0.00000000       0.02066542      -0.01133696       0.01253768       0.00080878
C       15.92568033      10.87798926       7.02666775       0.00000000       0.00000000       0.00626857       0.01319824       0.00947364       0.00186326
C       16.39540492      12.17871539       6.94433574       0.00000000       0.00000000      -0.02037198      -0.00570257      -0.00203454       0.00086085
N       15.59762627      13.30045336       6.98735957       0.00000000       0.00000000       0.01918239      -0.02500167      -0.01190767      -0.00115989
C       16.46932278      14.36937685       6.99288055       0.00000000       0.00000000       0.01014485       0.01524454       0.00946460       0.00070691
C       16.09534892      15.70107805       7.02967757       0.00000000       0.00000000      -0.00143139       0.01667999       0.01672058       0.00239507
C       14.79261568      16.16617458       7.03787929       0.00000000       0.00000000      -0.01781578       0.01061724       0.00282279       0.00076358
N       13.66826072      15.37371542       7.04431442       0.00000000       0.00000000      -0.00553884       0.03215614       0.00100520      -0.00161657
Fe      13.60004788      13.37260430       7.30789316       3.00000000       0.00000000      -0.00154719      -0.00109496       0.00234857       2.38658591
Cl      13.61553387      13.34899061       9.57363175       0.00000000       0.00000000      -0.01753074       0.00997083       0.00074286       0.15309241
N       13.52199757      11.38359588       7.02647735       0.00000000       0.00000000       0.02215132      -0.01211406       0.02435492      -0.00179981
C       12.40156123      10.57894375       7.04312057       0.00000000       0.00000000       0.00459671       0.00450561       0.00700729       0.00083927
C       11.09617534      11.04106756       7.02555056       0.00000000       0.00000000       0.00368489      -0.00832334       0.01353241       0.00181843
C       10.72694532      12.37813834       7.02631632       0.00000000       0.00000000      -0.01290125       0.00121017       0.02336914       0.00080660
N       11.60361149      13.44185387       7.03044073       0.00000000       0.00000000      -0.00314915       0.00968494       0.05282688      -0.00096490
C       10.81040437      14.57079639       7.06468738       0.00000000       0.00000000       0.01057524      -0.02849754       0.02534313       0.00063085
C       11.26895745      15.87739099       7.06909529       0.00000000       0.00000000       0.00586876      -0.00444307       0.00103866       0.00252293
C       12.60254714      16.25479390       7.04770576       0.00000000       0.00000000       0.02287588      -0.01973125      -0.00236528       0.00042237
C       13.05650451      17.62357519       7.03803983       0.00000000       0.00000000      -0.01073585      -0.02184985      -0.00984362       0.00268569
C       12.18594693      18.83127859       6.96216176       0.00000000       0.00000000       0.00389705       0.01331141      -0.01617383      -0.00015371
C       14.43928605      17.57465875       7.04559823       0.00000000       0.00000000       0.01515414      -0.00966362      -0.01704928       0.00280958
C       15.40287963      18.65970016       7.01024767       0.00000000       0.00000000       0.00478106      -0.00489927      -0.00442763      -0.00106392
C       15.21681643      19.92615778       7.42560815       0.00000000       0.00000000       0.03405567       0.00852230       0.00183109       0.00277214
C        9.41182756      14.21584123       7.10394181       0.00000000       0.00000000      -0.00412106       0.00460899       0.00155998       0.00257897
C        8.27672899      15.18152039       7.20096426       0.00000000       0.00000000      -0.00956912      -0.00333147      -0.00144168      -0.00015691
C        9.35717407      12.84221264       7.07107933       0.00000000       0.00000000      -0.01321839       0.00381325      -0.00008162       0.00275062