148
Lattice="31.68 0.0 0.0 0.0 23.76 0.0 0.0 0.0 18.0" Properties=species:S:1:pos:R:3:initial_magmoms:R:1:forces:R:3:magmoms:R:1 energy=-984.178364 dipole="0.002275 -0.00159 -0.000975" pbc="F F F"
C       18.44708100      14.30521400      10.35566700       0.00148100       0.01645000       0.02339000      -0.00432000       0.00148100
H       19.96302900       6.33066600       9.60973100       0.00019400       0.00906000       0.00033000       0.00973000       0.00019400
N       22.18101500      12.82449000       9.11243700      -0.00514900       0.00361000      -0.00825000       0.03752000      -0.00514900
C       22.51771700      14.14740300       8.96501600       0.00100400      -0.01429000       0.00028000       0.00003000       0.00100400
H       21.10038200       6.17409500      10.95954500       0.00035200       0.00640000      -0.01343000      -0.00303000       0.00035200
N       21.17932500      10.23199900       9.61357300      -0.00494700      -0.00123000       0.00901000      -0.00897000      -0.00494700
C       20.54368700       9.05233400       9.94106700       0.00082100      -0.00765000       0.00201000       0.02914000       0.00082100
H       22.06792700      16.21809200       9.06783700      -0.00004800       0.00666000       0.01138000       0.00017000      -0.00004800
C       21.67090400      15.21521100       9.21249000       0.00143600       0.01303000       0.00078000      -0.01412000       0.00143600
C       19.26041900       8.95387700      10.45669800       0.00169400       0.01067000      -0.05297000       0.01563000       0.00169400
H       18.88975000       7.95908900      10.69676400      -0.00005700      -0.00199000      -0.00873000      -0.01174000      -0.00005700
C       20.36305100      15.10835900       9.65224600       0.00093600      -0.00192000      -0.00319000       0.02787000       0.00093600
N       19.69799900      13.92645300       9.91104000      -0.00313700      -0.00344000      -0.01914000      -0.00823000      -0.00313700
H       20.03912500      17.94621800       8.70440000       0.00039400       0.00247000       0.01045000      -0.00054000       0.00039400
C       18.42276900      10.02466900      10.71724000       0.00085000      -0.04990000      -0.21916000       0.06040000       0.00085000
N       18.72009600      11.33872800      10.45235300      -0.00142100      -0.01936000       0.48299000      -0.03482000      -0.00142100
H       20.88295500      17.88492200      10.25941400       0.00020500       0.00495000       0.00803000      -0.00139000       0.00020500
C       19.52032800      16.24803800       9.93001100       0.00333200      -0.00950000      -0.00312000      -0.01456000       0.00333200
H       16.78069600       7.75698200      11.18762300       0.00018500      -0.00115000       0.00695000       0.00850000       0.00018500
C       19.92265100      17.67665400       9.76578700      -0.00018600       0.00390000       0.00425000      -0.00346000      -0.00018600
C       17.11117300       9.89604500      11.30915700       0.00438400      -0.04258000      -0.02320000       0.02679000       0.00438400
C       17.60326800      12.05367300      10.85953700       0.00114800       0.06254000      -0.10663000      -0.00576000       0.00114800
C       16.48725900       8.62563900      11.79152200      -0.00017700       0.00105000       0.01484000       0.00080000      -0.00017700
C       18.31528800      15.74552400      10.36225200       0.00311700      -0.01832000       0.00280000       0.00495000       0.00311700
H       16.76057200      17.03097200       8.62273700      -0.00000300       0.01068000      -0.01495000      -0.00418000      -0.00000300
H       19.17455300      18.35262100      10.19874100      -0.00003000       0.00347000       0.00687000      -0.00416000      -0.00003000
C       17.46477100      13.43068700      10.79225000       0.00120000       0.03211000      -0.03580000      -0.02023000       0.00120000
C       16.59154000      11.16771000      11.39145200       0.00382000      -0.00620000       0.00665000      -0.00882000       0.00382000
H       16.78516000       8.40924700      12.83027900       0.00057300      -0.01601000      -0.00018000       0.00028000       0.00057300
H       15.39116800       8.69298400      11.77348900      -0.00002400       0.01937000      -0.00850000       0.02359000      -0.00002400
H       15.65363300      15.81505400       9.22349800      -0.00000200       0.01830000      -0.00407000      -0.00933000      -0.00000200
C       16.17116200      16.74479100       9.50791100       0.00040100       0.00952000      -0.00059000       0.00484000       0.00040100
H       14.17021300      10.59230200      10.26327600      -0.00006000      -0.00699000      -0.01159000      -0.00557000      -0.00006000
H       16.52460000      13.85712200      11.13948000      -0.00004900      -0.00215000      -0.01030000       0.00980000      -0.00004900
H       14.42334800      12.30141900      10.00553300      -0.00001400      -0.01031000       0.01608000      -0.00504000      -0.00001400
C       17.08796600      16.52635300      10.72256500      -0.00016800      -0.01814000       0.01221000      -0.00630000      -0.00016800
H       17.37659700      17.50809000      11.12430600       0.00010600      -0.00206000       0.00186000      -0.00063000       0.00010600
C       14.17898500      11.56283200      10.78366100       0.00450700       0.02950000      -0.00618000      -0.00692000       0.00450700
O       14.40269600      18.02205100       8.56999700       0.00005100      -0.00919000      -0.00192000      -0.01128000       0.00005100
C       15.23939900      11.56518800      11.89425700       0.00040700      -0.00020000      -0.00769000       0.02083000       0.00040700
H       16.52093900      16.03510900      11.52647800       0.00003000       0.00543000      -0.00229000      -0.00533000       0.00003000
C       15.13074900      17.81870600       9.71353000       0.00002600      -0.00510000       0.02552000       0.03864000       0.00002600
H       14.91611300      10.87789900      12.68792300       0.00022500      -0.01381000      -0.01841000       0.01444000       0.00022500
H       15.26527600      12.55578700      12.36970000       0.00007500       0.00289000       0.01655000      -0.00235000       0.00007500
O       11.83075400      11.86304100      10.36258400       0.16650600      -0.01989000       0.00628000       0.01341000       0.16650600
C       12.76042900      11.83338800      11.29167900       0.00389600       0.02686000      -0.00734000      -0.01300000       0.00389600
O       14.94166700      18.46035500      10.72480300       0.00003400       0.00364000      -0.01405000       0.01327000       0.00003400
C       23.31331500      12.11849800       8.76180400       0.00073100       0.01548000       0.00683000       0.02337000       0.00073100
C       23.89741200      14.29025800       8.53624400       0.00266500      -0.01444000       0.01510000      -0.00441000       0.00266500
C       22.42984200       9.86311900       9.17608300       0.00092000       0.00467000       0.01071000       0.02320000       0.00092000
C       21.40393800       7.91679800       9.71654000       0.00260400       0.01787000      -0.00666000      -0.00506000       0.00260400
H       13.78495100      18.75427100       8.77370200       0.00000500      -0.00522000       0.00616000       0.02141000       0.00000500
O       12.52711000      11.99715100      12.48670200       0.04465900       0.00222000       0.00722000      -0.01611000       0.04465900
C       24.39248500      13.00740000       8.39969800       0.00250200       0.00186000       0.00781000      -0.01078000       0.00250200
C       23.42478700      10.73763000       8.77484500       0.00196300       0.01401000       0.00357000       0.01145000       0.00196300
C       24.54501900      15.56697800       8.27861400      -0.00058900       0.00319000       0.00805000       0.01684000      -0.00058900
C       22.60043800       8.42341100       9.24519400       0.00299900       0.00155000      -0.00927000      -0.01074000       0.00299900
C       21.00837800       6.49131700       9.90834400      -0.00017000      -0.00000000      -0.00178000       0.00829000      -0.00017000
C       25.74037600      12.58533200       7.92010000      -0.00015600      -0.00677000      -0.00316000       0.00172000      -0.00015600
H       24.38379400      10.31032600       8.48915700      -0.00006000       0.00113000      -0.00753000      -0.01928000      -0.00006000
H       23.89640900      16.36412300       7.90205000       0.00010800      -0.01139000       0.01275000       0.00259000       0.00010800
C       25.84390300      15.85933700       8.46483300       0.00142300      -0.01755000       0.00007000       0.00471000       0.00142300
C       23.81018400       7.71711300       8.85106700      -0.00064300       0.00179000      -0.01140000      -0.00288000      -0.00064300
H       21.64686900       5.82953700       9.30765600      -0.00008100      -0.01057000       0.00033000       0.01234000      -0.00008100
H       26.17752800      13.35706100       7.27129000      -0.00007300       0.00146000       0.00141000       0.02536000      -0.00007300
H       25.68938000      11.64982800       7.34791500       0.00015700       0.01012000      -0.01598000      -0.01735000       0.00015700
H       26.44232900      12.42004900       8.75307200       0.00036200       0.00437000       0.00737000       0.00702000       0.00036200
H       26.23068700      16.85016300       8.22725500      -0.00002500       0.00732000       0.00018000      -0.00262000      -0.00002500
H       26.54803900      15.14344200       8.88846700      -0.00003300       0.01123000      -0.01556000      -0.02863000      -0.00003300
H       24.37808000       8.15602500       8.02440500       0.00012100      -0.00419000       0.01554000       0.00541000       0.00012100
C       24.28696900       6.58791000       9.40395700       0.00152800      -0.00297000       0.00727000      -0.00490000       0.00152800
H       25.19476900       6.11968400       9.02333100      -0.00002400      -0.00125000       0.00556000       0.01025000      -0.00002400
H       23.81181500       6.11504900      10.26396300      -0.00003600      -0.01580000      -0.00254000      -0.01712000      -0.00003600
C       13.23288200       9.45441300       7.64299100       0.00142800      -0.00726000      -0.01157000       0.00755000       0.00142800
H       11.71784700      17.42986800       8.38948500       0.00019400      -0.00966000       0.00007000      -0.00896000       0.00019400
N        9.50102700      10.93449100       8.88805600      -0.00507900      -0.00533000       0.01002000      -0.03577000      -0.00507900
C        9.16353200       9.61172200       9.03529800       0.00094100       0.01568000       0.00162000       0.00018000       0.00094100
H       10.57998800      17.58469600       7.03985200       0.00035600      -0.00547000       0.01273000       0.00320000       0.00035600
N       10.50369200      13.52787800       8.38869300      -0.00491700       0.00804000      -0.00200000       0.00455000      -0.00491700
C       11.13848300      14.70775700       8.06065000       0.00089400      -0.01638000       0.00166000      -0.02036000       0.00089400
H        9.61273200       7.54066400       8.93198500      -0.00005100      -0.00649000      -0.00979000      -0.00008000      -0.00005100
C       10.00976200       8.54356900       8.78731900       0.00154300      -0.00983000      -0.00077000       0.01243000       0.00154300
C       12.42132500      14.80639200       7.54439900       0.00160600       0.00838000      -0.00144000      -0.01685000       0.00160600
H       12.79228000      15.80104600       7.30404100      -0.00005600       0.00300000       0.00677000       0.01154000      -0.00005600
C       11.31718500       8.65074000       8.34666600       0.00084700       0.00233000       0.00675000      -0.02318000       0.00084700
N       11.98210800       9.83277800       8.08797600      -0.00303700      -0.00132000       0.01083000       0.01526000      -0.00303700
H       11.64095700       5.81360500       9.29529200       0.00039100      -0.00179000      -0.00988000      -0.00000000       0.00039100
C       13.25813900      13.73513100       7.28338000       0.00093200      -0.00218000       0.00165000      -0.02005000       0.00093200
N       12.96049700      12.41103600       7.54806100      -0.00123800       0.00875000       0.00735000       0.01332000      -0.00123800
H       10.79736900       5.87499100       7.74017200       0.00020300      -0.00368000      -0.01040000       0.00148000       0.00020300
C       12.16015600       7.51126100       8.06903700       0.00329500       0.01599000       0.00494000       0.01123000       0.00329500
H       14.90080900      16.00272200       6.81301600       0.00018300      -0.00051000      -0.00804000      -0.00863000       0.00018300
C       11.75781500       6.08274200       8.23381400      -0.00018500      -0.00349000      -0.00458000       0.00248000      -0.00018500
C       14.56958500      13.86356200       6.69153000       0.00434800       0.00533000       0.00206000      -0.00595000       0.00434800
C       14.07724600      11.70607300       7.14074200       0.00109500      -0.00442000      -0.01052000      -0.01231000       0.00109500
C       15.19372000      15.13377300       6.20934000      -0.00017300       0.00157000      -0.01550000      -0.00016000      -0.00017300
C       13.36490400       8.01417000       7.63639500       0.00305400       0.01656000      -0.01200000      -0.00233000       0.00305400
H       14.91998100       6.72967400       9.37734900      -0.00000300      -0.00908000       0.00938000      -0.00023000      -0.00000300
H       12.50573200       5.40629200       7.80121800      -0.00003100      -0.00415000      -0.00657000       0.00433000      -0.00003100
C       14.21540000      10.32902200       7.20732900       0.00128900       0.00595000      -0.00505000       0.00940000       0.00128900
C       15.08917600      12.59197000       6.60958000       0.00394400       0.01225000      -0.00687000       0.00361000       0.00394400
H       14.89596400      15.34964500       5.17046200       0.00056700       0.01515000       0.00146000      -0.00007000       0.00056700
H       16.28966100      15.06560600       6.22752900      -0.00002400      -0.01643000       0.00891000      -0.02397000      -0.00002400
H       16.02591800       7.94565400       8.77685700      -0.00000200      -0.01547000       0.00671000       0.00716000      -0.00000200
C       15.50908100       7.01575600       8.49186000       0.00039500      -0.00665000       0.00288000      -0.00079000       0.00039500
H       17.50756800      13.16791100       7.73958100      -0.00005900       0.00948000       0.01023000       0.00467000      -0.00005900
H       15.15576700       9.90285200       6.86046800      -0.00005100       0.00224000       0.00360000      -0.00954000      -0.00005100
H       17.25961700      11.45744900       7.99473700      -0.00001400       0.00921000      -0.01362000       0.00463000      -0.00001400
C       14.59271400       7.23394300       7.27710900      -0.00016500       0.01717000      -0.01307000       0.00386000      -0.00016500
H       14.30499500       6.25175400       6.87590500       0.00010600       0.00062000      -0.00120000      -0.00444000       0.00010600
C       17.50185400      12.19804200       7.21778800       0.00450500      -0.02194000       0.00197000       0.00307000       0.00450500
O       17.27632800       5.73665900       9.42893200       0.00005100       0.01257000       0.00365000       0.01969000       0.00005100
C       16.44135500      12.19464500       6.10703700       0.00040100       0.00428000       0.00267000      -0.02099000       0.00040100
H       15.16008700       7.72555300       6.47371300       0.00002900      -0.00615000       0.00058000       0.00290000       0.00002900
C       16.55057800       5.94294200       8.28460900       0.00002500      -0.00158000      -0.02050000      -0.01804000       0.00002500
H       16.76447800      12.88119400       5.31278000       0.00023000       0.01454000       0.02116000      -0.01482000       0.00023000
H       16.41559700      11.20381100       5.63226800       0.00007800      -0.00218000      -0.01901000       0.00211000       0.00007800
O       19.85103600      11.89483200       7.63899100       0.16661500       0.01163000       0.00133000      -0.00873000       0.16661500
C       18.92153500      11.93202700       6.70977200       0.00387700      -0.02202000       0.00294000       0.00421000       0.00387700
O       16.74174700       5.30480200       7.27179300       0.00003400      -0.01230000       0.00205000      -0.02205000       0.00003400
C        8.36899400      11.64078100       9.23886300       0.00080500      -0.01872000      -0.00223000      -0.02219000       0.00080500
C        7.78373900       9.46953600       9.46395800       0.00272800       0.01380000      -0.01578000       0.00438000       0.00272800
C        9.25275700      13.89621200       8.82538200       0.00100000       0.00023000      -0.00308000      -0.02493000       0.00100000
C       10.27761800      15.84300000       8.28444000       0.00264300      -0.01071000       0.00346000       0.00129000       0.00264300
H       17.89566000       5.00583600       9.22511300       0.00000500       0.00383000      -0.00616000      -0.02462000       0.00000500
O       19.15694400      11.77749300       5.51389200       0.04473800       0.00561000      -0.00345000       0.01259000       0.04473800
C        8.25799100      13.02158400       9.22639900       0.00192700      -0.01547000      -0.01057000      -0.01553000       0.00192700
C        7.28917100      10.75256800       9.60055900       0.00244800      -0.00274000      -0.00849000       0.01183000       0.00244800
C        7.13553700       8.19307500       9.72129500      -0.00059700      -0.00123000      -0.00803000      -0.01476000      -0.00059700
C        9.08112300      15.33588200       8.75542700       0.00302400      -0.00313000       0.00648000       0.00971000       0.00302400
C       10.67247600      17.26850600       8.09136000      -0.00017000      -0.00102000       0.00290000      -0.00925000      -0.00017000
H        7.29858600      13.44884400       9.51080800      -0.00005900      -0.00145000       0.00872000       0.02161000      -0.00005900
C        5.94098800      11.17485800      10.07975100      -0.00015300       0.00785000       0.00291000      -0.00173000      -0.00015300
C        5.83662200       7.90098700       9.53502800       0.00144300       0.01738000      -0.00118000      -0.00639000       0.00144300
H        7.78398600       7.39596300      10.09813300       0.00011000       0.01112000      -0.01470000      -0.00271000       0.00011000
C        7.87087400      16.04173500       9.14883400      -0.00064600       0.00111000       0.01156000       0.00532000      -0.00064600
H       10.03378800      17.93065700       8.69149800      -0.00008000       0.01147000      -0.00096000      -0.01195000      -0.00008000
H        5.23904600      11.33971800       9.24668700       0.00035800      -0.00382000      -0.00741000      -0.00715000       0.00035800
H        5.99151500      12.11056700      10.65164700       0.00015500      -0.00870000       0.01611000       0.01716000       0.00015500
H        5.50365600      10.40332400      10.72874600      -0.00007300       0.00024000      -0.00106000      -0.02581000      -0.00007300
H        5.13288200       8.61704200       9.11094000      -0.00003400      -0.01167000       0.01380000       0.03002000      -0.00003400
H        5.44976700       6.91004300       9.77234100      -0.00002500      -0.00764000       0.00287000       0.00281000      -0.00002500
C        7.39384300      17.17076400       8.59582300       0.00153800       0.00226000      -0.00621000       0.00454000       0.00153800
H        7.30369500      15.60308200       9.97613600       0.00012200       0.00232000      -0.01517000      -0.00645000       0.00012200
H        7.86862000      17.64372100       7.73564600      -0.00003600       0.01637000       0.00150000       0.01743000      -0.00003600
H        6.48641100      17.63927800       8.97695600      -0.00002500       0.00056000      -0.00675000      -0.01122000      -0.00002500
Fe      20.34586700      12.06359300       9.50484200       2.50000600       0.00923000      -0.03348000      -0.01783000       2.50000600
Fe      11.33612600      11.69551200       8.49669700       2.49904700      -0.01095000      -0.00579000       0.01248000       2.49904700
148
Lattice="31.68 0.0 0.0 0.0 23.76 0.0 0.0 0.0 18.0" Properties=species:S:1:pos:R:3:initial_magmoms:R:1:forces:R:3:magmoms:R:1 energy=-984.179631 dipole="-0.002086 -0.005701 -0.000452" pbc="F F F"
C       18.44708100      14.30521400      10.35566700       0.00143000       0.00849000       0.00915000       0.00021000       0.00143000
H       19.96302900       6.33066600       9.60973100       0.00019500       0.00896000      -0.00002000       0.00959000       0.00019500
N       22.18101500      12.82449000       9.11243700      -0.00513400       0.00512000      -0.00951000       0.03675000      -0.00513400
C       22.51771700      14.14740300       8.96501600       0.00094600      -0.01438000      -0.00602000      -0.00014000       0.00094600
H       21.10038200       6.17409500      10.95954500       0.00035600       0.00654000      -0.01362000      -0.00304000       0.00035600
N       21.17932500      10.23199900       9.61357300      -0.00495800      -0.00681000       0.00084000      -0.00545000      -0.00495800
C       20.54368700       9.05233400       9.94106700       0.00091200       0.01403000      -0.00048000       0.02123000       0.00091200
H       22.06792700      16.21809200       9.06783700      -0.00005100       0.00652000       0.01109000       0.00024000      -0.00005100
C       21.67090400      15.21521100       9.21249000       0.00153500       0.00787000       0.00225000      -0.01309000       0.00153500
C       19.26041900       8.95387700      10.45669800       0.00159100      -0.00632000       0.00115000       0.01783000       0.00159100
H       18.88975000       7.95908900      10.69676400      -0.00005500      -0.00487000      -0.00840000      -0.01096000      -0.00005500
C       20.36305100      15.10835900       9.65224600       0.00085700       0.00335000      -0.00914000       0.02440000       0.00085700
N       19.69799900      13.92645300       9.91104000      -0.00306900       0.00368000      -0.01227000      -0.01364000      -0.00306900
H       20.03912500      17.94621800       8.70440000       0.00039200       0.00073000       0.01000000      -0.00239000       0.00039200
C       18.42276900      10.02466900      10.71724000       0.00094000       0.00033000      -0.00077000       0.02158000       0.00094000
N       18.72009600      11.34872800      10.45235300      -0.00126900      -0.00742000      -0.00746000      -0.01181000      -0.00126900
H       20.89295500      17.88492200      10.25941400       0.00020500      -0.23355000      -0.03240000      -0.10422000       0.00020500
C       19.52032800      16.24803800       9.93001100       0.00329600      -0.00841000       0.00041000      -0.01262000       0.00329600
H       16.78069600       7.75698200      11.18762300       0.00018300      -0.00091000       0.00731000       0.00842000       0.00018300
C       19.92265100      17.67665400       9.76578700      -0.00018700       0.23266000       0.03946000       0.09793000      -0.00018700
C       17.11117300       9.89604500      11.30915700       0.00433800      -0.00525000      -0.00088000       0.00788000       0.00433800
C       17.60326800      12.05367300      10.85953700       0.00109300       0.00313000       0.00885000       0.01358000       0.00109300
C       16.48725900       8.62563900      11.79152200      -0.00017300       0.00066000       0.01338000      -0.00015000      -0.00017300
C       18.31528800      15.74552400      10.36225200       0.00306000      -0.01694000       0.00876000       0.00429000       0.00306000
H       16.76057200      17.03097200       8.62273700      -0.00000200       0.01080000      -0.01495000      -0.00427000      -0.00000200
H       19.17455300      18.35262100      10.19874100      -0.00003000       0.02098000       0.01186000       0.00638000      -0.00003000
C       17.46477100      13.43068700      10.79225000       0.00128000      -0.00410000       0.00682000      -0.01016000       0.00128000
C       16.59154000      11.16771000      11.39145200       0.00394600      -0.01091000       0.00508000      -0.00685000       0.00394600
H       16.78516000       8.40924700      12.83027900       0.00056600      -0.01528000       0.00108000      -0.00057000       0.00056600
H       15.39116800       8.69298400      11.77348900      -0.00002400       0.01994000      -0.00793000       0.02351000      -0.00002400
H       15.65363300      15.81505400       9.22349800      -0.00000200       0.01849000      -0.00399000      -0.00913000      -0.00000200
C       16.17116200      16.74479100       9.50791100       0.00039500       0.00918000      -0.00108000       0.00483000       0.00039500
H       14.17021300      10.59230200      10.26327600      -0.00006000      -0.00697000      -0.01166000      -0.00568000      -0.00006000
H       16.52460000      13.85712200      11.13948000      -0.00005100      -0.00139000      -0.00532000       0.00835000      -0.00005100
H       14.42334800      12.30141900      10.00553300      -0.00001500      -0.01012000       0.01606000      -0.00482000      -0.00001500
C       17.08796600      16.52635300      10.72256500      -0.00016500      -0.01855000       0.01135000      -0.00640000      -0.00016500
H       17.37659700      17.50809000      11.12430600       0.00010500      -0.00173000       0.00235000      -0.00063000       0.00010500
C       14.17898500      11.56283200      10.78366100       0.00451800       0.02894000      -0.00617000      -0.00774000       0.00451800
O       14.40269600      18.02205100       8.56999700       0.00005000      -0.00945000      -0.00203000      -0.01132000       0.00005000
C       15.23939900      11.56518800      11.89425700       0.00040300       0.00069000      -0.00477000       0.01991000       0.00040300
H       16.52093900      16.03510900      11.52647800       0.00002900       0.00575000      -0.00241000      -0.00572000       0.00002900
C       15.13074900      17.81870600       9.71353000       0.00002600      -0.00525000       0.02522000       0.03870000       0.00002600
H       14.91611300      10.87789900      12.68792300       0.00022900      -0.01324000      -0.01876000       0.01436000       0.00022900
H       15.26527600      12.55578700      12.36970000       0.00007800       0.00282000       0.01616000      -0.00264000       0.00007800
O       11.83075400      11.86304100      10.36258400       0.16647100      -0.01915000       0.00630000       0.01394000       0.16647100
C       12.76042900      11.83338800      11.29167900       0.00389900       0.02581000      -0.00735000      -0.01314000       0.00389900
O       14.94166700      18.46035500      10.72480300       0.00003500       0.00322000      -0.01414000       0.01326000       0.00003500
C       23.31331500      12.11849800       8.76180400       0.00079800       0.01831000       0.00605000       0.02261000       0.00079800
C       23.89741200      14.29025800       8.53624400       0.00272000      -0.01386000       0.01483000      -0.00405000       0.00272000
C       22.42984200       9.86311900       9.17608300       0.00099900       0.00309000       0.00571000       0.02403000       0.00099900
C       21.40393800       7.91679800       9.71654000       0.00264400       0.01180000      -0.00413000      -0.00244000       0.00264400
H       13.78495100      18.75427100       8.77370200       0.00000500      -0.00517000       0.00614000       0.02145000       0.00000500
O       12.52711000      11.99715100      12.48670200       0.04465400       0.00269000       0.00704000      -0.01636000       0.04465400
C       24.39248500      13.00740000       8.39969800       0.00245200       0.00191000       0.00718000      -0.01132000       0.00245200
C       23.42478700      10.73763000       8.77484500       0.00192100       0.01472000       0.00812000       0.01155000       0.00192100
C       24.54501900      15.56697800       8.27861400      -0.00059700       0.00316000       0.00776000       0.01682000      -0.00059700
C       22.60043800       8.42341100       9.24519400       0.00304700       0.00555000      -0.00577000      -0.01271000       0.00304700
C       21.00837800       6.49131700       9.90834400      -0.00017100       0.00003000      -0.00252000       0.00859000      -0.00017100
C       25.74037600      12.58533200       7.92010000      -0.00015300      -0.00676000      -0.00301000       0.00170000      -0.00015300
H       24.38379400      10.31032600       8.48915700      -0.00005900       0.00113000      -0.00757000      -0.01930000      -0.00005900
H       23.89640900      16.36412300       7.90205000       0.00011000      -0.01138000       0.01271000       0.00253000       0.00011000
C       25.84390300      15.85933700       8.46483300       0.00144000      -0.01743000      -0.00007000       0.00461000       0.00144000
C       23.81018400       7.71711300       8.85106700      -0.00065000       0.00149000      -0.01107000      -0.00275000      -0.00065000
H       21.64686900       5.82953700       9.30765600      -0.00008000      -0.01084000       0.00025000       0.01231000      -0.00008000