1
Lattice="24.984408 0.0 0.0 0.0 25.659818 0.0 0.0 0.0 14.892215" Properties=species:S:1:pos:R:3:magmoms:R:1 energy=-4.182343 free_energy=-4.182343 dipole="0.0 0.0 0.0" magmom=4.0 pbc="F F F"
Fe      12.49220400      12.82990900       7.44610800       4.00000000
