1
Lattice="24.984408 0.0 0.0 0.0 25.659818 0.0 0.0 0.0 14.892215" Properties=species:S:1:pos:R:3:magmoms:R:1 energy=-1.1099609680170317 free_energy=-1.1099609680170317 dipole="2.6398200765913837e-15 4.019313941832918e-15 2.692961500147922e-15" magmom=1.000000000000002 pbc="F F F"
H       12.49220400      12.82990900       7.44610750       0.26197290
