1
Lattice="24.984408 0.0 0.0 0.0 25.659818 0.0 0.0 0.0 14.892215" Properties=species:S:1:pos:R:3:magmoms:R:1 energy=-3.171558113518122 free_energy=-3.171558113518122 dipole="9.353173105859967e-15 4.021341635221723e-14 3.546459344891511e-14" magmom=3.0000000002584932 pbc="F F F"
N       12.49220400      12.82990900       7.44610750       1.04995997
