1
Lattice="24.984408 0.0 0.0 0.0 25.659818 0.0 0.0 0.0 14.892215" Properties=species:S:1:pos:R:3:magmoms:R:1 energy=-2.179056463567101 free_energy=-2.179056463567101 dipole="-1.8640815524768363e-14 -8.44037478488792e-15 2.1962035174163504e-14" magmom=1.999999999954572 pbc="F F F"
O       12.49220400      12.82990900       7.44610750       1.11502299
