20
Lattice="3.01940776 0.0 0.0 -1.50970388 4.95464689 0.0 0.0 0.0 15.91706509" Properties=species:S:1:pos:R:3:forces:R:3:magmoms:R:1 bandgap=0.6582000000000003 e_per_atom_relaxed=-7.7887030205 mp_id=mp-1378486 energy_per_atom=-7.7848592315000005 ef_per_atom_relaxed=-7.7887030205 corrected_total_energy=-155.69718463 ef_per_atom=-1.42836713425 task_id=mvc-14118 calc_id=0 ionic_step=2 pretrained=T config_weight=1.0 head=pbe_mp energy=-129.40518463 stress="0.004579218417465501 -0.0 -0.0 -0.0 0.005049233676846822 -0.0 -0.0 -0.0 0.0012136286067069792" pbc="T T T"
Fe       1.50969937       3.61988033       0.75437322       0.00000000       0.08350302      -0.01682847       4.35300000
Fe      -0.00000002       1.33476161      15.16269187       0.00000000      -0.08350302       0.01682847       4.35300000
Fe       1.50969937       3.61988033       7.20415932       0.00000000       0.08350302       0.01682847       4.35300000
Fe      -0.00000002       1.33476161       8.71290577       0.00000000      -0.08350302      -0.01682847       4.35300000
Fe       0.00000152       4.00129737      10.30310302       0.00000000      -0.09251320       0.02687012       4.30800000
Fe       1.50970236       0.95334952       5.61397799       0.00000000       0.09251320      -0.02687012       4.30800000
Fe       1.50970236       0.95334952       2.34455456       0.00000000       0.09251320       0.02687012       4.30800000
Fe       0.00000152       4.00129737      13.57249461       0.00000000      -0.09251320      -0.02687012       4.30800000
O        1.50970086       0.00000000       7.95853254       0.00000000       0.00000000       0.00000000       0.32000000
O        1.50970086       0.00000000       0.00000000       0.00000000       0.00000000       0.00000000       0.32000000
O        0.00000149       0.28444544      13.56959962       0.00000000      -0.08252222       0.09138151       0.37700000
O        1.50970239       4.67020145       2.34748139       0.00000000       0.08252222      -0.09138151       0.37700000
O        1.50970239       4.67020145       5.61105116       0.00000000       0.08252222       0.09138151       0.37700000
O        0.00000149       0.28444544      10.30601393       0.00000000      -0.08252222      -0.09138151       0.37700000
O        1.50970088       2.69419612      14.76298698       0.00000000      -0.02296721       0.03995315       0.30500000
O       -0.00000152       2.26045573       1.15407811       0.00000000       0.02296721      -0.03995315       0.30500000
O       -0.00000152       2.26045573       6.80445444       0.00000000       0.02296721       0.03995315       0.30500000
O        1.50970088       2.69419612       9.11261065       0.00000000      -0.02296721      -0.03995315       0.30500000
O       -0.00000152       3.17648551      11.93779882       0.00000000       0.06258235       0.00000000       0.48100000
O        1.50970088       1.77815643       3.97926627       0.00000000      -0.06258235       0.00000000       0.48100000
60
Lattice="0.0 7.011748 7.011748 7.011748 0.0 7.011748 7.011748 7.011748 0.0" Properties=species:S:1:pos:R:3:forces:R:3:magmoms:R:1 bandgap=1.0091999999999999 e_per_atom_relaxed=-8.837989154166667 mp_id=mp-667273 energy_per_atom=-8.836705889833333 ef_per_atom_relaxed=-8.837989154166667 corrected_total_energy=-530.20235339 ef_per_atom=0.3900639301666672 task_id=mp-694016 calc_id=0 ionic_step=0 pretrained=T config_weight=1.0 head=pbe_mp energy=-530.20235339 stress="-0.0033400019763913415 -0.0 -0.0 -0.0 -0.0033400019763913415 -0.0 -0.0 -0.0 -0.0033400019763913415" pbc="T T T"
C        7.73826326      11.72073278       9.61230016      -0.09684835      -0.02914771      -0.14466536       0.00000000
C        0.72651526       2.30276322       2.60055216      -0.09684835       0.02914771      -0.14466536       0.00000000
C       10.98929528       5.58797050       5.83763781       0.04427266      -0.07365858       0.11374846       0.00000000
C        9.31451122       9.61230016      13.29698074       0.02914771      -0.14466536       0.09684835       0.00000000
C        2.30276322       4.41119584       6.28523274       0.02914771       0.14466536       0.09684835       0.00000000
C       10.98929528       5.58797050       8.18585819       0.04427266      -0.07365858      -0.11374846       0.00000000
C       11.42294384      13.29698074      11.72073278       0.14466536       0.09684835      -0.02914771       0.00000000
C        5.83763781      10.98929528       8.43552550       0.11374846       0.04427266       0.07365858       0.00000000
C        7.01174800      10.53121778       7.71332247       0.00000000       0.10190424      -0.01563171       0.00000000
C        5.58797050       5.83763781       3.03420072      -0.07365858       0.11374846      -0.04427266       0.00000000
C        4.41119584       0.72651526       4.70898478       0.14466536      -0.09684835      -0.02914771       0.00000000
C        8.43552550       8.18585819      10.98929528       0.07365858      -0.11374846       0.04427266       0.00000000
C       10.53121778       6.31017353       7.01174800       0.10190424       0.01563171       0.00000000       0.00000000
C        4.70898478       2.60055216       6.28523274      -0.02914771      -0.14466536       0.09684835       0.00000000
C       11.42294384       7.73826326       9.31451122       0.14466536      -0.09684835       0.02914771       0.00000000
C        2.60055216       0.72651526       2.30276322      -0.14466536      -0.09684835       0.02914771       0.00000000
C        5.83763781       3.03420072       5.58797050       0.11374846      -0.04427266      -0.07365858       0.00000000
C        9.61230016       7.73826326      11.72073278      -0.14466536      -0.09684835      -0.02914771       0.00000000
C        4.41119584       6.28523274       2.30276322       0.14466536       0.09684835       0.02914771       0.00000000
C        6.28523274       4.70898478       2.60055216       0.09684835      -0.02914771      -0.14466536       0.00000000
C        5.58797050       8.18585819       3.03420072      -0.07365858      -0.11374846      -0.04427266       0.00000000
C        2.30276322       2.60055216       0.72651526       0.02914771      -0.14466536      -0.09684835       0.00000000
C        3.49227822       7.71332247       7.01174800      -0.10190424      -0.01563171       0.00000000       0.00000000
C        8.43552550       8.18585819       3.03420072       0.07365858      -0.11374846      -0.04427266       0.00000000
C        3.03420072       8.43552550       5.83763781      -0.04427266       0.07365858       0.11374846       0.00000000
C        9.61230016      13.29698074       9.31451122      -0.14466536       0.09684835       0.02914771       0.00000000
C       13.29698074      11.72073278      11.42294384       0.09684835      -0.02914771       0.14466536       0.00000000
C        7.01174800       3.49227822       6.31017353       0.00000000      -0.10190424       0.01563171       0.00000000
C        8.18585819       3.03420072       5.58797050      -0.11374846      -0.04427266      -0.07365858       0.00000000
C        2.60055216       6.28523274       4.70898478      -0.14466536       0.09684835      -0.02914771       0.00000000
C        5.83763781       3.03420072       8.43552550       0.11374846      -0.04427266       0.07365858       0.00000000
C        3.03420072       5.58797050       8.18585819      -0.04427266      -0.07365858      -0.11374846       0.00000000
C        8.18585819       3.03420072       8.43552550      -0.11374846      -0.04427266       0.07365858       0.00000000
C        7.01174800       3.49227822       7.71332247       0.00000000      -0.10190424      -0.01563171       0.00000000
C        3.03420072       5.58797050       5.83763781      -0.04427266      -0.07365858       0.11374846       0.00000000
C        6.28523274       2.30276322       4.41119584       0.09684835       0.02914771       0.14466536       0.00000000
C        6.31017353       7.01174800       3.49227822       0.01563171       0.00000000      -0.10190424       0.00000000
C        8.18585819      10.98929528       8.43552550      -0.11374846       0.04427266       0.07365858       0.00000000
C        8.18585819      10.98929528       5.58797050      -0.11374846       0.04427266      -0.07365858       0.00000000
C        8.43552550       5.83763781       3.03420072       0.07365858       0.11374846      -0.04427266       0.00000000
C       13.29698074       9.31451122       9.61230016       0.09684835       0.02914771      -0.14466536       0.00000000
C        5.83763781      10.98929528       5.58797050       0.11374846       0.04427266      -0.07365858       0.00000000
C        7.01174800      10.53121778       6.31017353       0.00000000       0.10190424       0.01563171       0.00000000
C       10.98929528       8.43552550       5.83763781       0.04427266       0.07365858       0.11374846       0.00000000
C        3.49227822       6.31017353       7.01174800      -0.10190424       0.01563171       0.00000000       0.00000000
C        5.58797050       8.18585819      10.98929528      -0.07365858      -0.11374846       0.04427266       0.00000000
C       11.72073278      11.42294384      13.29698074      -0.02914771       0.14466536       0.09684835       0.00000000
C        9.31451122      11.42294384       7.73826326       0.02914771       0.14466536      -0.09684835       0.00000000
C        8.43552550       5.83763781      10.98929528       0.07365858       0.11374846       0.04427266       0.00000000
C       10.53121778       7.71332247       7.01174800       0.10190424      -0.01563171       0.00000000       0.00000000
C        6.31017353       7.01174800      10.53121778       0.01563171       0.00000000       0.10190424       0.00000000
C        0.72651526       4.70898478       4.41119584      -0.09684835      -0.02914771       0.14466536       0.00000000
C        4.70898478       4.41119584       0.72651526      -0.02914771       0.14466536      -0.09684835       0.00000000
C       10.98929528       8.43552550       8.18585819       0.04427266       0.07365858      -0.11374846       0.00000000
C        5.58797050       5.83763781      10.98929528      -0.07365858       0.11374846       0.04427266       0.00000000
C       11.72073278       9.61230016       7.73826326      -0.02914771      -0.14466536      -0.09684835       0.00000000
C        3.03420072       8.43552550       8.18585819      -0.04427266       0.07365858      -0.11374846       0.00000000
C        7.71332247       7.01174800      10.53121778      -0.01563171       0.00000000       0.10190424       0.00000000
C        7.73826326       9.31451122      11.42294384      -0.09684835       0.02914771       0.14466536       0.00000000
C        7.71332247       7.01174800       3.49227822      -0.01563171       0.00000000      -0.10190424       0.00000000
12
Lattice="5.946561 0.0 0.0 0.0 5.946561 0.0 0.0 0.0 5.946561" Properties=species:S:1:pos:R:3:forces:R:3:magmoms:R:1 bandgap=3.3568 e_per_atom_relaxed=-5.884958864166667 mp_id=mp-7139 energy_per_atom=-5.878807826666667 ef_per_atom_relaxed=-5.884958864166667 corrected_total_energy=-70.54569392 ef_per_atom=1.32817330625 task_id=mp-686844 calc_id=0 ionic_step=0 pretrained=T config_weight=1.0 head=pbe_mp energy=-67.79769392 stress="-0.0001272749254686915 -0.0 -0.0 -0.0 -0.0001272749254686915 -0.0 -0.0 -0.0 -0.0001272749254686915" pbc="T T T"
N        0.69115095       2.28212955       3.66443145      -0.00427706       0.00427706      -0.00427706       0.00000000
N        2.28212955       3.66443145       0.69115095       0.00427706      -0.00427706      -0.00427706       0.00000000
N        3.66443145       0.69115095       2.28212955      -0.00427706      -0.00427706       0.00427706       0.00000000
N        5.25541005       5.25541005       5.25541005       0.00427706       0.00427706       0.00427706       0.00000000
N        0.69115095       0.69115095       0.69115095      -0.00427706      -0.00427706      -0.00427706       0.00000000
N        2.28212955       5.25541005       3.66443145       0.00427706       0.00427706      -0.00427706       0.00000000
N        3.66443145       2.28212955       5.25541005      -0.00427706       0.00427706       0.00427706       0.00000000
N        5.25541005       3.66443145       2.28212955       0.00427706      -0.00427706       0.00427706       0.00000000
O        0.00000000       2.97328050       2.97328050       0.00000000       0.00000000       0.00000000       0.00000000
O        2.97328050       2.97328050       0.00000000       0.00000000       0.00000000       0.00000000       0.00000000
O        2.97328050       0.00000000       2.97328050       0.00000000       0.00000000       0.00000000       0.00000000
O        0.00000000       0.00000000       0.00000000       0.00000000       0.00000000       0.00000000       0.00000000
1
Lattice="-1.53761791 -1.53761791 -0.0 -1.53761791 -0.0 -1.53761791 0.0 -1.53761791 -1.53761791" Properties=species:S:1:pos:R:3:forces:R:3:magmoms:R:1 bandgap=0.0 e_per_atom_relaxed=-3.82991611 mp_id=mp-721759 energy_per_atom=-3.78090731 ef_per_atom_relaxed=-3.82991611 corrected_total_energy=-3.78090731 ef_per_atom=4.555586655000001 task_id=mp-1056857 calc_id=0 ionic_step=2 pretrained=T config_weight=1.0 head=pbe_mp energy=-3.78090731 stress="0.00044812354685434195 -0.0 0.0 -0.0 0.00044812354685434195 -0.0 0.0 -0.0 0.00044812354685434195" pbc="T T T"
N        0.00000000       0.00000000       0.00000000       0.00000000      -0.00000000       0.00000000      -0.00000000
16
Lattice="0.0 -2.65107591 -0.0 3.85736168 -1.32553796 -1.22925588 3.66639873 -1.32553796 13.73255106" Properties=species:S:1:pos:R:3:forces:R:3:magmoms:R:1 bandgap=0.0 e_per_atom_relaxed=-8.49968916375 mp_id=mp-1205444 energy_per_atom=-8.49628666125 ef_per_atom_relaxed=-8.49968916375 corrected_total_energy=-135.94058658 ef_per_atom=0.16237857375000075 task_id=mp-1205444 calc_id=0 ionic_step=6 pretrained=T config_weight=1.0 head=pbe_mp energy=-135.94058658 stress="-0.009382856455921643 0.0 -8.47460312660181e-05 0.0 -0.007579933636739784 -0.0 -8.47460312660181e-05 -0.0 -0.00835628354963448" pbc="T T T"
Fe       3.65047997      -2.65107590       2.04049543       0.08838106      -0.00000000       0.06811664       1.90400000
Fe       3.87328044      -2.65107593      10.46279975      -0.08838106      -0.00000000      -0.06811664       1.90400000
Fe       1.89049064      -2.65107590       3.76086730      -0.05990018      -0.00000000      -0.13005433       1.33400000
Fe       5.63326977      -2.65107593       8.74242788       0.05990018       0.00000000       0.13005433       1.33400000
Fe       2.58988463      -2.65107591       6.12889312       0.01332324      -0.00000000       0.00439957       1.69700000
Fe       4.93387578      -2.65107592       6.37440206      -0.01332324      -0.00000000      -0.00439957       1.69700000
Fe       3.96874260      -3.97661387       4.33649859      -0.16377620      -0.00000000       0.06559742       1.87800000
Fe       3.55501781      -1.32553796       8.16679659       0.16377620       0.00000000      -0.06559742       1.87800000
Fe       1.20568950      -2.65107591       1.41615999      -0.09038998      -0.00000000       0.06913265       1.97900000
Fe       6.31807091      -2.65107592      11.08713519       0.09038998      -0.00000000      -0.06913265       1.97900000
Fe       2.95700971      -2.65107591      -0.42156221       0.06971743       0.00000000      -0.05701548       1.23000000
Fe       4.56675070      -2.65107592      12.92485739      -0.06971743      -0.00000000       0.05701548       1.23000000
C        2.64243356      -1.32553797       0.94831466      -0.07371650      -0.00000000      -0.04823093      -0.12300000
C        4.88132685      -3.97661386      11.55498052       0.07371650       0.00000000       0.04823093      -0.12300000
C        1.53325869      -1.32553794       5.09931916      -0.04793271       0.00000000       0.02340155      -0.13000000
C        5.99050172      -3.97661389       7.40397602       0.04793271      -0.00000000      -0.02340155      -0.13000000
14
Lattice="1.73052049 4.92670979 2.99735007 -0.0151121 -0.01068585 6.02087401 5.2368988 -1e-08 -3.02352498" Properties=species:S:1:pos:R:3:forces:R:3:magmoms:R:1 bandgap=0.0 e_per_atom_relaxed=-8.086998347142856 mp_id=mp-19306 energy_per_atom=-8.07662528 ef_per_atom_relaxed=-8.086998347142856 corrected_total_energy=-113.07275392 ef_per_atom=-1.6195234235714286 task_id=mp-715490 calc_id=0 ionic_step=2 pretrained=T config_weight=1.0 head=pbe_mp energy=-94.04075392 stress="0.0006923596097951501 -0.0003591228286134282 -0.0008796674359761074 -0.0003591228286134282 0.0009462977366646143 -0.000622018607101123 -0.0008796674359761074 -0.000622018607101123 -0.0003233928727166707" pbc="T T T"
Fe       3.47615359       2.45801197       2.99734955       0.00000000       0.00000000       0.00000000       3.92100000
Fe       0.85770419       2.45801197       4.50911204       0.00000000       0.00000000       0.00000000       4.00900000
Fe       2.61844940      -0.00000001      -1.51176249       0.00000000       0.00000000       0.00000000       3.92400000
Fe       3.48370964       2.46335489      -0.01308745       0.00000000       0.00000000       0.00000000       4.24200000
Fe       0.87465869       0.61847714       1.51495314       0.00524423       0.00370823       0.00908327      -4.19500000
Fe       6.07764850       4.29754679       4.47974596      -0.00524423      -0.00370823      -0.00908327      -4.19500000
O        2.66072326       3.65327189       1.45488754       0.01618834      -0.01226853      -0.01068809       0.03500000
O        2.62106175       3.62522698       4.53981206       0.00617077      -0.01935202       0.01068808       0.05500000
O        1.78123500       1.25952345       3.08518920       0.01438498       0.01017172       0.02491551       0.01000000
O        4.33124544       1.29079695       1.45488704      -0.00617077       0.01935202      -0.01068808       0.05500000
O        1.78580091       1.26275204       5.98652615       0.01735032       0.01226853      -0.00867547       0.03700000
O        5.17107219       3.65650048       2.90950990      -0.01438498      -0.01017172      -0.02491551       0.01000000
O        4.29158393       1.26275204       4.53981156      -0.01618834       0.01226853       0.01068809       0.03500000
O        5.16650628       3.65327189       0.00817295      -0.01735032      -0.01226853       0.00867547       0.03700000
56
Lattice="14.757451 0.0 0.0 0.0 3.698156 0.0 0.0 0.127232 9.944284" Properties=species:S:1:pos:R:3:forces:R:3:magmoms:R:1 bandgap=3.5049 e_per_atom_relaxed=-5.529476038214286 mp_id=mp-625948 energy_per_atom=-5.520462715178571 ef_per_atom_relaxed=-5.529476038214286 corrected_total_energy=-309.14591205 ef_per_atom=-1.108088591785714 task_id=mp-673474 calc_id=0 ionic_step=0 pretrained=T config_weight=1.0 head=pbe_mp energy=-292.65791205 stress="-0.002158786868499536 -0.0 -0.0 -0.0 -0.006641861098114457 -0.001749652312739577 -0.0 -0.001749652312739577 -0.005201411736890075" pbc="T T T"
H        9.15258587       2.60688401       7.09414282       0.00189600      -0.03528538      -0.13219342       0.00000000
H       10.00386943       3.69342705       7.85539765       0.01220662      -0.09858933      -0.01475290       0.00000000
H        4.16009592       1.70861670       6.84122984      -0.09458113      -0.02152133      -0.02577192       0.00000000
H        5.09869932       0.89417288       7.85180776      -0.07745109      -0.00154420      -0.03312040       0.00000000
H       11.53882142       2.11677130       3.10305416      -0.09458113       0.02152133       0.02577192       0.00000000
H       12.47742482       2.93121512       2.09247624      -0.07745109       0.00154420       0.03312040       0.00000000
H        1.77386037       1.21850399       2.85014118       0.00189600       0.03528538       0.13219342       0.00000000
H        2.62514393       0.13196095       2.08888635       0.01220662       0.09858933       0.01475290       0.00000000
H       13.20141061       3.18359905       7.48309360       0.07282376      -0.07462854      -0.06374966       0.00000000
H       14.35376093       3.23760698       6.43358381       0.03792576       0.00339974      -0.03417002       0.00000000
H       14.74639767       1.69359926       7.85756550       0.02969380       0.03393804      -0.04016472       0.00000000
H        0.05666861       0.53602232       9.00257025       0.03635091       0.05769954      -0.09701463       0.00000000
H        1.39466766       1.74975664       9.07103664      -0.00700808       0.02160440      -0.02406673       0.00000000
H        7.43539411       3.28936568       0.94171375       0.03635091      -0.05769954       0.09701463       0.00000000
H        8.77339316       2.07563136       0.87324736      -0.00700808      -0.02160440       0.02406673       0.00000000
H        5.82268511       0.64178895       2.46119040       0.07282376       0.07462854       0.06374966       0.00000000
H        7.36767217       2.13178874       2.08671850       0.02969380      -0.03393804       0.04016472       0.00000000
H        6.97503543       0.58778102       3.51070019       0.03792576      -0.00339974       0.03417002       0.00000000
H       12.13791490       0.89534196       5.10853780       0.04646836       0.08434125      -0.04116666       0.00000000
H       13.21016178       1.30363292       3.96535285       0.01677115      -0.17064532       0.15595191       0.00000000
H       12.77425619       3.45940883       3.98230786      -0.03316259       0.01274769      -0.03304220       0.00000000
H        2.91644125       2.74618317       9.56089207       0.04975671       0.03739852      -0.01469648       0.00000000
H        2.10770342       1.68415515       0.77290953      -0.06456418       0.07059354      -0.11334406       0.00000000
H       10.29516675       1.07920483       0.38339193       0.04975671      -0.03739852       0.01469648       0.00000000
H        9.48642892       2.14123285       9.17137447      -0.06456418      -0.07059354       0.11334406       0.00000000
H        4.75918940       2.93004604       4.83574620       0.04646836      -0.08434125       0.04116666       0.00000000
H        5.83143628       2.52175508       5.97893115       0.01677115       0.17064532      -0.15595191       0.00000000
H        5.39553069       0.36597917       5.96197614      -0.03316259      -0.01274769       0.03304220       0.00000000
N       12.50952228       0.19781120       9.80380110       0.13677524      -0.07337805       0.00349787       0.00000000
N        2.54284162       2.13518072       5.02721344      -0.04101567       0.03832961       0.27517055       0.00000000
N        9.92156712       1.69020728       4.91707056      -0.04101567      -0.03832961      -0.27517055       0.00000000
N        5.13079678       3.62757680       0.14048290       0.13677524       0.07337805      -0.00349787       0.00000000
O       12.16350432       0.46652295       8.62017275      -0.07560189       0.02761366       0.04705789       0.00000000
O        2.66870792       2.25754453       6.28448916       0.08715085       0.03652242      -0.25252353       0.00000000
O       10.04743342       1.56784347       3.65979484       0.08715085      -0.03652242       0.25252353       0.00000000
O        4.78477882       3.35886505       1.32411125      -0.07560189      -0.02761366      -0.04705789       0.00000000
O       11.67851545       0.22684642       0.82475903       0.04246246      -0.02119228      -0.01725334       0.00000000
O        3.56109099       2.31505018       4.24812851       0.02207603       0.09697343      -0.05004463       0.00000000
O       10.93981649       1.51033782       5.69615549       0.02207603      -0.09697343       0.05004463       0.00000000
O        4.29978995       3.59854158       9.11952497       0.04246246       0.02119228       0.01725334       0.00000000
O       13.66470603       3.33703082       0.13496382      -0.06526862      -0.00730334      -0.04004042       0.00000000
O        1.44243753       1.83127357       4.51531154      -0.01620889       0.00417762      -0.00800329       0.00000000
O        8.82116303       1.99411443       5.42897246      -0.01620889      -0.00417762       0.00800329       0.00000000
O        6.28598053       0.48835718       9.80932018      -0.06526862       0.00730334       0.04004042       0.00000000
O        9.27125053       3.05626270       7.96423784       0.06973456       0.08417409       0.08890378       0.00000000
O        5.09573307       1.36456910       6.97181818       0.05166173      -0.06708120      -0.00333895       0.00000000
O       12.47445857       2.46081890       2.97246582       0.05166173       0.06708120       0.00333895       0.00000000
O        1.89252503       0.76912530       1.98004616       0.06973456      -0.08417409      -0.08890378       0.00000000
O       13.80336704       2.61334871       6.93895232      -0.08667498      -0.05716421       0.05427976       0.00000000
O        0.61408705       1.08447288       8.38280269      -0.01587953      -0.04670174       0.06338524       0.00000000
O        7.99281255       2.74091512       1.56148131      -0.01587953       0.04670174      -0.06338524       0.00000000
O        6.42464154       1.21203929       3.00533168      -0.08667498       0.05716421      -0.05427976       0.00000000
O       13.02944203       0.56264930       4.62561354       0.00989795       0.17582951      -0.14460449       0.00000000
O        2.04511707       2.36078431       9.84450305      -0.14623521      -0.15082410       0.18272919       0.00000000
O        9.42384257       1.46460369       0.09978095      -0.14623521       0.15082410      -0.18272919       0.00000000
O        5.65071653       3.26273870       5.31867046       0.00989795      -0.17582951       0.14460449       0.00000000
70
Lattice="10.847636 0.117024 -0.336674 0.059277 5.916232 -0.03233 0.170387 -0.059599 10.850945" Properties=species:S:1:pos:R:3:forces:R:3:magmoms:R:1 bandgap=0.2107000000000001 e_per_atom_relaxed=-6.584618665428572 mp_id=mp-626406 energy_per_atom=-6.584618665428572 ef_per_atom_relaxed=-6.584618665428572 corrected_total_energy=-460.92330658000003 ef_per_atom=-1.2761393000357144 task_id=mp-1887834 calc_id=0 ionic_step=0 pretrained=T config_weight=1.0 head=pbe_mp energy=-401.46930658 stress="-0.03580399302753327 -0.0008743586392494688 -0.0045792939085183785 -0.0008743586392494688 -0.08104684533791445 0.0037137000020815683 -0.0045792939085183785 0.0037137000020815683 -0.056916548909861614" pbc="T T T"
Fe       3.61000815       0.12260665       0.72414839       0.02242947      -0.80810132      -0.14616655       4.29500000
Fe       1.71831471       0.19023542       6.78747608      -0.20357008       0.47084806      -0.32307464       4.35600000
Fe       9.21667159       1.77137725       6.08669635      -0.41023996       0.23095831       0.58237950       4.32800000
Fe       7.75569809       1.45683109       0.55394289       1.07176683       0.37251939       1.67725241       4.13600000
Fe       7.66363041       5.91833914       8.38333298      -0.05815201      -1.57492771      -0.20896832       4.34100000
Fe       9.69624419       5.97924536       2.36287324      -0.10174449      -0.85853654      -0.84971138       4.33500000
Fe       1.73882302       1.57009775       3.63957874      -0.51030873       0.42871858      -1.04046730       4.37800000
Fe       3.81162657       1.61620761       8.44973402       0.57279604      -0.04021927      -0.31668191       4.11400000
Fe       3.63617895       2.90762565       0.67743571      -0.06485626       0.86924900      -0.17053155       4.28300000
Fe       1.67025541       3.15706882       6.74511139       0.03288239       0.29831141      -0.90960162       4.36500000
Fe       8.92400434       4.73552896       5.42292103       0.08311622      -0.35441026      -0.53818607       4.28800000
Fe       9.84138121       4.15686948      10.04516072      -0.47834504       0.10343579       0.47020721       4.36100000
Fe       7.58298465       2.79992047       8.48689544      -0.91646538       1.00476441       0.23062940       4.30500000
Fe       9.54429275       3.06817037       2.49537814       0.36363972      -0.33399128      -0.39389696       4.32600000
Fe       1.85554434       4.57314621       3.61234230      -0.58517546      -0.18653343      -0.39512074       4.38600000
Fe       4.01772753       4.57679776       8.39836578       0.53313225      -0.12378718       0.08864374       4.34600000
H        3.46430628       0.47354418       2.86146331       0.26708776      -0.10556837       0.46537276       0.00500000
H        4.29698099       0.24818395       6.15296287      -0.10748636      -0.13527506      -0.10336381       0.00700000
H        6.02823327       1.32070306       9.57610556      -0.06042981       0.05611706      -0.24926670       0.00500000
H        8.03143313       1.62401471       3.68700081      -0.11322652      -0.00640782       0.04909089       0.00400000
H        7.00437840       0.75221853       6.09986898      -0.30017205      -0.22035212      -0.25086656       0.00600000
H       10.70824622       0.26021343       4.90103231       0.22813648      -0.01806265      -0.50931404       0.00500000
H        7.32555428       5.33145671       1.99643312       0.00650467       0.14082724       0.19708657       0.00600000
H        5.57674102       1.54728106       1.79405164       0.02886978       0.02071813       0.14318342       0.00400000
H        1.08731942       1.86414319       8.94114894      -0.04785810       0.20468933       0.27906885       0.00900000
H        3.46736026       2.94798239       2.89118095       0.37541868      -0.00774425       0.48761607       0.00500000
H        4.28491561       3.11829787       6.13879317      -0.14822303       0.01871405      -0.12356257       0.00700000