12
Properties=species:S:1:pos:R:3:molID:I:1:momenta:R:3:force_mace:R:3:forces:R:3 Nmols=1 Comp=DMC(1) energy_mace=-67.92330932617188 energy=-67.92330932617188 free_energy=-67.92330932617188 stress="8.948214826887124e-07 -7.558047059319506e-07 9.285255941904325e-07 -7.558047059319506e-07 4.551547192477301e-07 6.401072027983901e-07 9.285255941904325e-07 6.401072027983901e-07 -1.0552657840889879e-06" pbc="F F F"
C       -0.06354920       0.02615914       0.03273994        0      -0.93754199      -0.39150873       0.65834758      -0.59671211      -1.59123719      -1.40240574      -0.59671211      -1.59123719      -1.40240574
O       -1.09745824      -0.56171083      -0.33384407        0       0.36764955       0.03075143      -0.51925505       0.47906595       0.72349060       1.53658295       0.47906595       0.72349060       1.53658295
O        0.59339279       0.04178514       1.16893291        0       0.12818119      -0.13264735      -0.28457433       0.61288285       0.90691721      -0.19157326       0.61288285       0.90691721      -0.19157326
O        0.70731479       0.58054012      -0.92796504        0       0.80244230       0.50534587      -0.04244485       1.03336859       0.36341858       0.46862054       1.03336859       0.36341858       0.46862054
C       -0.18480919      -0.38314587       2.27627182        0      -0.15068212      -0.31375315       0.38725801      -1.00589657       0.89906669       1.68651485      -1.00589657       0.89906669       1.68651485
C        0.11790480       0.31317315      -2.18905210        0      -0.52785305       0.05201512      -0.39272424      -3.22365189       0.55980450      -1.66091299      -3.22365189       0.55980450      -1.66091299
H        0.50081283      -0.52887988       3.16355896        0      -0.01820506       0.58329212      -0.17364675      -0.61837572      -0.12750021      -0.95737541      -0.61837572      -0.12750021      -0.95737541
H       -0.99130619       0.37122315       2.57026887        0       0.46354622      -0.04994915       0.12792686       0.89572310      -0.24028742      -0.16314888       0.89572310      -0.24028742      -0.16314888
H       -0.79898220      -1.19689691       1.93909299        0      -0.24675422       0.00599425      -0.38163321      -0.15938386      -1.18867362       0.30851260      -0.15938386      -1.18867362       0.30851260
H        0.82173383       0.39293513      -3.04121518        0       0.13743540       0.01828716       0.28812961       0.34200567      -0.00478256       0.62855935       0.34200567      -0.00478256       0.62855935
H       -0.51975018      -0.63449883      -2.23208618        0      -0.12209001      -0.21507670       0.11092110       1.01581466       0.87737530      -0.29270303       1.01581466       0.87737530      -0.29270303
H       -0.68493521       1.15580308      -2.35394812        0       0.10387177      -0.09275087       0.22169526       1.22515929      -1.17759192       0.03932907       1.22515929      -1.17759192       0.03932907
12
Properties=species:S:1:pos:R:3:molID:I:1:momenta:R:3:force_mace:R:3:forces:R:3 Nmols=1 Comp=DMC(1) energy_mace=-67.75000762939453 energy=-67.75000762939453 free_energy=-67.75000762939453 stress="9.979398782888893e-07 -3.476119161405222e-07 4.179161408046639e-07 -3.476119161405222e-07 2.3886013877927326e-06 8.772254886935116e-07 4.179161408046639e-07 8.772254886935116e-07 -5.229018640307004e-08" pbc="F F F"
C       -0.06961888      -0.02913121       0.01167076        0       1.07359244      -0.55841496      -0.86050233       2.05013585       0.63637680      -0.53341961       2.05013585       0.63637680      -0.53341961
O       -1.10260735      -0.54579899      -0.30332570        0      -1.22562762       0.07843848       0.98025929      -1.31877816      -0.45659864       0.19584967      -1.31877816      -0.45659864       0.19584967
O        0.60982663       0.02472382       1.15071741        0       0.39538610      -0.54031627      -0.42509639      -0.79102057      -0.46033001       0.23833817      -0.79102057      -0.46033001       0.23833817
O        0.74686985       0.59128060      -0.92619252        0       0.46051761      -0.27947784      -0.17259968      -1.31165826      -1.14717615       0.11540830      -1.31165826      -1.14717615       0.11540830
C       -0.20689137      -0.38271768       2.28482270        0       0.14443459       1.24975515       0.35578715       1.60514164       3.35154772       3.40438557       1.60514164       3.35154772       3.40438557
C        0.03066285       0.30783116      -2.22164502        0      -0.46042710       0.81653536       0.23552782       0.22614121       2.02836871      -0.12090391       0.22614121       2.02836871      -0.12090391
H        0.59375430      -0.38748939       3.13974609        0      -0.26366481      -0.32683824      -0.11485263      -1.18070221      -0.80516315      -1.35687625      -1.18070221      -0.80516315      -1.35687625
H       -0.72538750       0.60121585       2.71712827        0       0.01651147      -0.00205636      -0.10268675       0.15358765      -1.87966800      -1.21177781       0.15358765      -1.87966800      -1.21177781
H       -0.83932155      -1.26792310       2.27013167        0       0.08995711      -0.32835955       0.83108967      -0.03628875      -0.15853667      -0.53477222      -0.03628875      -0.15853667      -0.53477222
H        0.88854868       0.46743694      -2.87434490        0      -0.29406423       0.23433238      -0.02317504      -0.17490655       0.01674709      -0.60236096      -0.17490655       0.01674709      -0.60236096
H       -0.40305064      -0.69543348      -2.45767117        0       0.03094566      -0.30071133      -0.40985856       0.06799760       0.75359118       0.52734631       0.06799760       0.75359118       0.52734631
H       -0.66295934       1.23712541      -2.33348410        0       0.03243892      -0.04288679      -0.29389259       0.71035099      -1.87915921      -0.12121738       0.71035099      -1.87915921      -0.12121738
12
Properties=species:S:1:pos:R:3:molID:I:1:momenta:R:3:force_mace:R:3:forces:R:3 Nmols=1 Comp=DMC(1) energy_mace=-67.8675765991211 energy=-67.8675765991211 free_energy=-67.8675765991211 stress="1.708055606286507e-06 -6.97633481649973e-07 1.014510075947328e-07 -6.97633481649973e-07 1.7120473785325885e-06 -7.457948640876566e-07 1.014510075947328e-07 -7.457948640876566e-07 3.190593247381912e-07" pbc="F F F"
C       -0.01969340      -0.07804887      -0.04441696        0      -0.68011530      -0.80563102      -0.67196853      -2.49500489      -0.37489054       0.09919952      -2.49500489      -0.37489054       0.09919952
O       -1.15670613      -0.56791904      -0.21834718        0       0.11164838      -0.03377345       1.76747755       1.57583499       0.60999912      -0.11858627       1.57583499       0.60999912      -0.11858627
O        0.58598489      -0.01629354       1.11124785        0      -0.47570896      -0.29804997       0.03004100       0.86324841      -0.23411942       1.51270926       0.86324841      -0.23411942       1.51270926
O        0.74764632       0.55531767      -0.95733606        0      -0.34986655      -1.14306490      -0.78156588      -0.72987008      -0.32357576      -0.46661150      -0.72987008      -0.32357576      -0.46661150
C       -0.16636093      -0.29791855       2.36105526        0       1.22290548       0.73207148       1.11885831      -0.33951673       0.83945960       0.71528614      -0.33951673       0.83945960       0.71528614
C        0.05663276       0.40387942      -2.22531808        0       1.35036061       1.69321427      -1.07928020      -0.68891698      -0.38987619      -2.79724956      -0.68891698      -0.38987619      -2.79724956
H        0.61308269      -0.59102353       3.13235513        0      -0.02128339       0.27374724      -0.16472324      -0.54474747       1.27882099      -0.63221836      -0.54474747       1.27882099      -0.63221836
H       -0.88684253       0.60893703       2.54777077        0      -0.23774835       0.06320439       0.02045174       1.53158021      -1.46525335       0.12237123       1.53158021      -1.46525335       0.12237123
H       -0.77343322      -1.20151255       2.42482405        0      -0.24756131       0.00637448      -0.61668702      -0.44366696      -0.30140033      -0.96724433      -0.44366696      -0.30140033      -0.96724433
H        0.79914155       0.57202021      -3.02387185        0      -0.05474846      -0.20373175       0.07611098       0.49256882       0.12369722       0.49188048       0.49256882       0.12369722       0.49188048
H       -0.33310590      -0.63027913      -2.46802159        0      -0.15126311      -0.25307782       0.29851046       0.18968940       0.79759121       0.70085001       0.18968940       0.79759121       0.70085001
H       -0.74667694       1.14808294      -2.56762822        0      -0.46661881      -0.03128285       0.00277455       0.58880186      -0.56045228       1.33961320       0.58880186      -0.56045228       1.33961320
12
Properties=species:S:1:pos:R:3:molID:I:1:momenta:R:3:force_mace:R:3:forces:R:3 Nmols=1 Comp=DMC(1) energy_mace=-67.14527893066406 energy=-67.14527893066406 free_energy=-67.14527893066406 stress="6.663776730420068e-07 -1.647102294555225e-06 -1.081447067008412e-06 -1.647102294555225e-06 -1.1063459623983363e-06 5.086599799142277e-07 -1.081447067008412e-06 5.086599799142277e-07 1.225189180331654e-06" pbc="F F F"
C       -0.07041212      -0.11407048      -0.08472050        0      -0.12581086       0.20724153       0.27972515       0.62747526       0.81801403       1.84869754       0.62747526       0.81801403       1.84869754
O       -1.17418604      -0.59217851      -0.14716764        0      -1.24800964      -0.61231383       0.79448062      -0.54619658      -0.42445630      -0.47302648      -0.54619658      -0.42445630      -0.47302648
O        0.60390972      -0.01852337       1.13309949        0       1.55105732       0.27396664       0.36100445       0.27661213       0.83688956      -0.30615777       0.27661213       0.83688956      -0.30615777
O        0.71878814       0.49649423      -0.99251346        0      -0.69061131      -0.62200278      -0.32444328       0.46483526       0.12106302       0.92194927       0.46483526       0.12106302       0.92194927
C       -0.17275335      -0.24383254       2.40071506        0      -0.86544713       0.77952363      -0.25803840       1.58545995       4.24071884       0.91161805       1.58545995       4.24071884       0.91161805
C        0.12631380       0.43871923      -2.35426699        0       1.15618369      -0.47317438      -0.78692708      -0.56307125       0.16245735       2.33017921      -0.56307125       0.16245735       2.33017921
H        0.64199942      -0.14014249       3.21792029        0      -0.13587563       0.05852414      -0.10514646      -1.16725302      -1.29812908      -1.09750533      -1.16725302      -1.29812908      -1.09750533
H       -0.86851592       0.66106529       2.80517575        0       0.06947343       0.18904952       0.37690287       0.90468901      -1.48169029      -1.32912195       0.90468901      -1.48169029      -1.32912195
H       -0.74316190      -1.03936727       2.06543399        0       0.16913463      -0.13824967       0.08319465      -1.33002734      -2.18222857       0.65639794      -1.33002734      -2.18222857       0.65639794
H        0.97950866       0.52492196      -3.03484222        0      -0.10021489       0.32359330      -0.15023437      -0.72929537       0.69626558      -0.45273414      -0.72929537       0.69626558      -0.45273414
H       -0.26321057      -0.53511847      -2.22013402        0       0.15007767      -0.20066196      -0.35269148      -0.77639616      -1.72152328      -1.54132116      -0.77639616      -1.72152328      -1.54132116
H       -0.83529323       1.05061132      -2.22766906        0       0.07004290       0.21450389       0.08217314       1.25316870       0.23261851      -1.46897495       1.25316870       0.23261851      -1.46897495
12
Properties=species:S:1:pos:R:3:molID:I:1:momenta:R:3:force_mace:R:3:forces:R:3 Nmols=1 Comp=DMC(1) energy_mace=-67.61381530761719 energy=-67.61381530761719 free_energy=-67.61381530761719 stress="2.527442347854958e-06 -3.940704118576832e-07 2.720015288559807e-07 -3.940704118576832e-07 1.4619868693444005e-07 -1.103786757994385e-06 2.720015288559807e-07 -1.103786757994385e-06 3.117095729976427e-06" pbc="F F F"
C       -0.10232535      -0.08398242       0.00195307        0      -1.26765820      -0.18728407       0.70479852      -1.03056288      -1.01925206      -0.71896917      -1.03056288      -1.01925206      -0.71896917
O       -1.22296291      -0.63260408      -0.11797522        0       0.08168866      -0.27376040      -0.06232005       2.39083910       1.45414686       0.17927702       2.39083910       1.45414686       0.17927702
O        0.64730664       0.02792601       1.14758450        0       0.41817878       1.29701346       0.07684018      -1.45437253       0.01563814      -0.43292481      -1.45437253       0.01563814      -0.43292481
O        0.70084442       0.43108624      -1.00777097        0       0.02835692      -1.57524315       0.16661838      -0.75341988      -0.52616501       0.43380463      -0.75341988      -0.52616501       0.43380463
C       -0.16588140      -0.18558420       2.37099084        0       0.99717417       0.16069243      -0.47083663       1.67902553       0.62421221       2.63501287       1.67902553       0.62421221       2.63501287
C        0.16682919       0.40335175      -2.38102798        0       0.26570541      -0.47038802      -0.84423019      -0.03885198       2.78722334      -0.27287203      -0.03885198       2.78722334      -0.27287203
H        0.67915704      -0.47147250       3.17408555        0      -0.00769272      -0.28959811       0.11702904      -1.73336816       1.31040931      -1.40308332      -1.73336816       1.31040931      -1.40308332
H       -0.87950701       0.68210037       2.69072489        0      -0.20958959       0.34545178      -0.06883206       1.56747091      -0.96650147      -0.69099629       1.56747091      -0.96650147      -0.69099629
H       -0.76786534      -1.06703671       2.46450421        0      -0.32840134       0.22404223       0.49963131      -0.63611400      -0.95700568      -0.97414553      -0.63611400      -0.95700568      -0.97414553
H        0.85002406       0.91329931      -3.07073722        0      -0.03357729       0.21701460       0.36175677       1.29564345      -0.59124744       0.27087837       1.29564345      -0.59124744       0.27087837
H       -0.16541174      -0.49489278      -2.81549867        0       0.14212467       0.37068869      -0.26389724      -0.40176997      -1.83889520      -0.00346747      -0.40176997      -1.83889520      -0.00346747
H       -0.57622133       1.19266980      -2.58398350        0      -0.08630929       0.18137056      -0.21655806      -0.88451988      -0.29256335       0.97748619      -0.88451988      -0.29256335       0.97748619
12
Properties=species:S:1:pos:R:3:molID:I:1:momenta:R:3:force_mace:R:3:forces:R:3 Nmols=1 Comp=DMC(1) energy_mace=-67.61888122558594 energy=-67.61888122558594 free_energy=-67.61888122558594 stress="9.656248067813067e-08 -9.332877652923344e-07 1.2041311947541544e-06 -9.332877652923344e-07 -2.498869946521154e-07 -8.741844794712961e-07 1.2041311947541544e-06 -8.741844794712961e-07 1.7114743968704715e-06" pbc="F F F"
C       -0.15726903      -0.12012284       0.03897505        0       0.80044757      -0.43205755      -0.45354538       2.81665921       1.13045979      -1.30797684       2.81665921       1.13045979      -1.30797684
O       -1.21744521      -0.62271163      -0.11483191        0      -0.61538935      -0.01586439       0.52201367      -2.13107920      -0.81541401       0.13608661      -2.13107920      -0.81541401       0.13608661
O        0.60894808       0.11857644       1.14771760        0      -0.48047077       1.70367545       0.19368941      -0.07084434      -1.14526236      -0.81674892      -0.07084434      -1.14526236      -0.81674892
O        0.66995226       0.31039098      -0.98660297        0      -0.81663513      -2.32729135       1.04078796      -0.50057399       0.15264155       0.25933337      -0.50057399       0.15264155       0.25933337
C       -0.14135515      -0.19622964       2.39216889        0      -0.78220206      -0.79242915       0.04200740       2.03867197       4.00898266       0.09006180       2.03867197       4.00898266       0.09006180
C        0.23685223       0.46626246      -2.44296750        0       1.17691186       0.96878541      -1.13167809       0.97387528      -1.50312972       0.91587180       0.97387528      -1.50312972       0.91587180
H        0.66985678      -0.32034672       3.20342836        0       0.44378986       0.35507965       0.34887869      -1.56583595      -0.10909563      -1.00349426      -1.56583595      -0.10909563      -1.00349426
H       -0.61411755       0.85447354       2.39652479        0      -0.06891356       0.47429994      -0.07898155      -0.03700199      -1.24085855       1.47456217      -0.03700199      -1.24085855       1.47456217
H       -0.93231445      -0.87505714       2.26908105        0      -0.03943932       0.22337785      -0.68176034      -0.98217809      -1.64237380       0.04194649      -0.98217809      -1.64237380       0.04194649
H        1.24068811       0.76262822      -2.83270758        0      -0.02461031      -0.20336558       0.14820299      -1.13783908       0.67743856      -0.43934631      -1.13783908       0.67743856      -0.43934631
H        0.05064489      -0.51948951      -2.91071921        0       0.38304719       0.15332564      -0.12788023       0.04698316      -0.18595029       0.37827712       0.04698316      -0.18595029       0.37827712
H       -0.70895598       1.01106567      -2.60837643        0       0.02346430      -0.10753595       0.17826543       0.54916346       0.67256200       0.27142686       0.54916346       0.67256200       0.27142686
12
Properties=species:S:1:pos:R:3:molID:I:1:momenta:R:3:force_mace:R:3:forces:R:3 Nmols=1 Comp=DMC(1) energy_mace=-67.76824188232422 energy=-67.76824188232422 free_energy=-67.76824188232422 stress="5.546998522731883e-07 6.328115631504261e-08 4.5510250856750645e-07 6.328115631504261e-08 3.646990194283717e-07 -3.9375425586740675e-08 4.5510250856750645e-07 -3.9375425586740675e-08 1.6892181520233862e-06" pbc="F F F"
C       -0.08770249      -0.16403247      -0.02482164        0      -0.16951713      -0.28510395      -0.51533921      -3.42763209      -0.02635264       1.31851125      -3.42763209      -0.02635264       1.31851125
O       -1.25961999      -0.61553774      -0.07747429        0      -0.28424243       0.35521195       0.01669805       2.10719824       0.40779942       0.24756691       2.10719824       0.40779942       0.24756691
O        0.60774697       0.20717894       1.14549370        0       0.55548059       0.99310921       0.55925623      -1.12026429      -0.70175850       1.37068224      -1.12026429      -0.70175850       1.37068224
O        0.66587994       0.20215250      -0.96608540        0       0.64009724      -0.92738321      -1.08943347       2.17102718       0.90151912      -2.99472594       2.17102718       0.90151912      -2.99472594
C       -0.21290654      -0.13539277       2.38334071        0      -1.34523296       0.82651770      -1.01839629       1.34897995      -0.43751329       1.00798881       1.34897995      -0.43751329       1.00798881
C        0.31422759       0.46219953      -2.47412535        0       1.37773894      -1.01582278       0.11435064       0.61236459      -0.08306286       1.61016726       0.61236459      -0.08306286       1.61016726
H        0.39292202      -0.42604877       3.32787458        0      -0.04129124      -0.55655844       0.33173488       0.06343445       0.36077866      -1.58665943       0.06343445       0.36077866      -1.58665943
H       -0.82268544       0.67554469       2.78705662        0      -0.68922672       0.09783356       0.68810946      -0.20500068       0.49250799      -0.64674765      -0.20500068       0.49250799      -0.64674765
H       -0.79710631      -0.99255639       2.11485341        0       0.33237325       0.03257222       0.54365221      -0.65431106      -0.46634921      -0.05138722      -0.65431106      -0.46634921      -0.05138722
H        1.18602252       1.01170217      -2.88353261        0      -0.35825571       0.26322875       0.12744317      -0.20742330      -0.33724624       0.17528430      -0.20742330      -0.33724624       0.17528430
H        0.24412063      -0.54902090      -2.90915423        0      -0.02260312       0.13107687       0.20256564      -0.47492975       0.46052319      -0.12931675      -0.47492975       0.46052319      -0.12931675
H       -0.54523643       1.15105667      -2.46900220        0       0.00467972       0.08531822       0.03935897      -0.21344341      -0.57084578      -0.32136354      -0.21344341      -0.57084578      -0.32136354
12
Properties=species:S:1:pos:R:3:molID:I:1:momenta:R:3:force_mace:R:3:forces:R:3 Nmols=1 Comp=DMC(1) energy_mace=-67.3625259399414 energy=-67.3625259399414 free_energy=-67.3625259399414 stress="2.454152081554639e-07 1.654092102398863e-06 -1.599320853529207e-06 1.654092102398863e-06 7.098888659129443e-07 -5.1928136457490837e-08 -1.599320853529207e-06 -5.1928136457490837e-08 1.0277715318807168e-06" pbc="F F F"
C       -0.15789322      -0.15782605      -0.06503509        0      -0.01021118       0.60086304      -0.05002971       3.08027077       1.95281506       1.08419514       3.08027077       1.95281506       1.08419514
O       -1.25098061      -0.61396881      -0.10245939        0      -1.14077627      -0.54594656      -0.77914203      -1.06865382      -0.51816088      -0.13587786      -1.06865382      -0.51816088      -0.13587786
O        0.59688080       0.26914047       1.17691459        0      -1.09491218       0.88242922       0.70876483      -3.06236982      -1.09997714      -1.21105421      -3.06236982      -1.09997714      -1.21105421
O        0.73372027       0.17381915      -1.05555977        0       1.80500521      -0.35249968      -0.59484849       0.72170341      -0.51879013       4.06634331       0.72170341      -0.51879013       4.06634331
C       -0.30865316      -0.09314819       2.41987788        0      -0.51599808      -1.11223937       0.39179853       2.47638559      -3.57751417      -2.68635416       2.47638559      -3.57751417      -2.68635416
C        0.40021932       0.38732975      -2.35126602        0       1.07736480      -0.51671870       1.15821299      -1.18459594       0.36281604      -4.03108740      -1.18459594       0.36281604      -4.03108740
H        0.49848981      -0.41836779       3.03638035        0       0.62194297       0.47352288      -0.01851648       0.55832022       0.53608185       1.46805084       0.55832022       0.53608185       1.46805084
H       -0.97086001       0.62473955       2.74416552        0      -0.40874283       0.59319520      -0.24634787      -1.28132296       2.31900501       0.67882079      -1.28132296       2.31900501       0.67882079
H       -0.83381801      -1.08527719       2.32876339        0      -0.11118332       0.43124062      -0.20921191      -0.05577317       0.78539580      -0.61579883      -0.05577317       0.78539580      -0.61579883
H        1.16495365       1.06173709      -2.88015166        0       0.12740547      -0.52258484      -0.01459948      -0.40185702      -0.98996568       0.66880518      -0.40185702      -0.98996568       0.66880518
H        0.24628179      -0.59536020      -2.91876696        0       0.16790741       0.24938750      -0.22334001       0.33957708       0.89881539       0.49030125       0.33957708       0.89881539       0.49030125
H       -0.54423284       0.95573331      -2.49135665        0      -0.51780179      -0.18064936      -0.12273997      -0.12168458      -0.15052104       0.22365579      -0.12168458      -0.15052104       0.22365579
12
Properties=species:S:1:pos:R:3:molID:I:1:momenta:R:3:force_mace:R:3:forces:R:3 Nmols=1 Comp=DMC(1) energy_mace=-67.3927230834961 energy=-67.3927230834961 free_energy=-67.3927230834961 stress="4.890509899269091e-07 3.0885723845130997e-06 2.897018021030817e-07 3.0885723845130997e-06 -4.027381521609641e-07 5.941848257862148e-07 2.897018021030817e-07 5.941848257862148e-07 1.9230244561185827e-06" pbc="F F F"
C       -0.14360114      -0.10104603      -0.06458190        0      -0.35146313       0.72650635      -0.03686235      -1.22846246      -1.00165498       1.36320376      -1.22846246      -1.00165498       1.36320376
O       -1.27619826      -0.63713737      -0.16418343        0       1.00762274       0.09621890      -0.97658354       2.75576186       1.51843107      -0.02284960       2.75576186       1.51843107      -0.02284960
O        0.46986261       0.28066247       1.16695345        0      -2.87307800      -0.23800988      -0.75718979      -0.07758161      -0.63393104      -1.10784519      -0.07758161      -0.63393104      -1.10784519
O        0.82288414       0.15567898      -0.95959135        0       1.54637315      -0.29160538       2.63337796      -0.67869437       0.30481949      -0.06944358      -0.67869437       0.30481949      -0.06944358
C       -0.24972182      -0.09382490       2.41807398        0       0.35358511       0.76826369      -0.78150184      -0.53352231      -2.58272409      -3.36959982      -0.53352231      -2.58272409      -3.36959982
C        0.40421751       0.35305133      -2.37438025        0       0.72157975      -1.23969649      -1.04860096       3.73417854      -3.40423822      -0.69224751       3.73417854      -3.40423822      -0.69224751
H        0.38386690      -0.03149662       3.26789159        0      -0.59606750       0.13821060       0.65881874       1.07643747      -1.06439149       0.80303699       1.07643747      -1.06439149       0.80303699
H       -0.87077086       0.68206586       2.53912465        0       0.19559930      -0.16129518      -0.04326263      -2.88027811       3.57009172       0.76539934      -2.88027811       3.57009172       0.76539934
H       -1.02435927      -0.90041579       2.11055762        0       0.16755570       0.26926045       0.15102811       1.60753751       0.26859781       1.21241248       1.60753751       0.26859781       1.21241248
H        1.27219403       0.85852942      -2.88626549        0      -0.15743066       0.22186491      -0.03383098      -1.13779700       0.28085542       0.53789878      -1.13779700       0.28085542       0.53789878
H        0.41313649      -0.68360854      -2.89712899        0       0.12216597      -0.40053457       0.15497134      -0.05985300       1.10382628       0.83566761      -0.05985300       1.10382628       0.83566761
H       -0.56791534       0.66348703      -2.44645112        0      -0.13644225       0.11081659       0.07963626      -2.57772589       1.64031827      -0.25563353      -2.57772589       1.64031827      -0.25563353
12
Properties=species:S:1:pos:R:3:molID:I:1:momenta:R:3:force_mace:R:3:forces:R:3 Nmols=1 Comp=DMC(1) energy_mace=-66.9950180053711 energy=-66.9950180053711 free_energy=-66.9950180053711 stress="-3.468834620434791e-06 -1.571630470209584e-08 4.56701911843993e-07 -1.571630470209584e-08 1.4444619864661945e-06 -6.844449558229826e-07 4.56701911843993e-07 -6.844449558229826e-07 -5.087250087854045e-07" pbc="F F F"
C       -0.17837993      -0.06344561      -0.04565766        0       0.38932551       0.49939853       0.07747744       2.87458777      -0.63932204       0.64121473       2.87458777      -0.63932204       0.64121473
O       -1.20091609      -0.64045065      -0.21664378        0       0.16021557      -0.69413257      -1.38878203      -2.11692834      -0.38654888      -0.88002026      -2.11692834      -0.38654888      -0.88002026
O        0.32740894       0.28761761       1.16058276        0      -1.34130611       0.72233487       0.55728681       1.78332782       1.11181593       0.60538846       1.78332782       1.11181593       0.60538846
O        0.90421092       0.15203554      -0.82419434        0       1.15474998      -0.17222377       1.55595224      -1.24760866       0.76850104      -3.21708107      -1.24760866       0.76850104      -3.21708107
C       -0.28990266       0.01451560       2.36291131        0      -1.92356325       1.96334910      -0.04254424      -3.48673058      -3.14188957      -0.47249168      -3.48673058      -3.14188957      -0.47249168
C        0.45887329       0.22504793      -2.46198266        0       0.94607690      -1.19645947      -0.08663044       2.78647614      -0.79417002       2.43064976       2.78647614      -0.79417002       2.43064976
H        0.22773540      -0.22813175       3.26172534        0       0.29090815      -0.12480264      -0.47085489       1.89920199       0.55426669       0.91975975       1.89920199       0.55426669       0.91975975
H       -1.01487898       0.81191397       2.52342410        0       0.14009026      -0.40778868      -0.03027835      -0.39963692      -0.07372287       0.34653008      -0.39963692      -0.07372287       0.34653008
H       -0.76334031      -1.10626394       2.28041636        0       0.37121166      -0.08685412      -0.12826912       0.14725700       2.26806736      -0.05397703       0.14725700       2.26806736      -0.05397703
H        1.05169129       1.00294418      -2.94637325        0      -0.04834694      -0.05122755      -0.04273344       1.18029344      -0.67827141       0.01300491       1.18029344      -0.67827141       0.01300491
H        0.54724316      -0.83905117      -2.71646710        0       0.03194732      -0.32345822      -0.02237243      -0.02863690       0.54906070      -0.50254959      -0.02863690       0.54906070      -0.50254959