12
Properties=species:S:1:pos:R:3:molID:I:1:momenta:R:3:force_mace:R:3:forces:R:3 Nmols=1 Comp=DMC(1) energy_mace=-589.6718225116363 energy=-589.6718225116363 free_energy=-589.6718225116363 stress="1.0388668055556161e-05 7.102565220203941e-07 5.427663083401844e-06 7.102565220203941e-07 3.3967039266226155e-06 3.583446775209934e-06 5.427663083401844e-06 3.583446775209934e-06 1.6660829295813982e-06" pbc="F F F"
C       -0.06354920       0.02615914       0.03273994        0       0.17844136      -0.34376020       1.07719402      -1.17578410      -1.66321359      -2.46666968      -1.17578410      -1.66321359      -2.46666968
O       -1.09745824      -0.56171083      -0.33384407        0      -0.37132631       0.01130763       0.61994678       1.76626318       1.25923339       2.87483399       1.76626318       1.25923339       2.87483399
O        0.59339279       0.04178514       1.16893291        0      -0.06068457      -0.59711980      -0.95669715      -0.73063117       0.36347256       0.53434277      -0.73063117       0.36347256       0.53434277
O        0.70731479       0.58054012      -0.92796504        0      -0.60590825       0.76431855      -0.46687405      -0.30054013      -0.60049619      -0.15355859      -0.30054013      -0.60049619      -0.15355859
C       -0.18480919      -0.38314587       2.27627182        0      -0.04014364      -0.06563936      -0.56096274      -0.58184635       1.06694307       1.25104254      -0.58184635       1.06694307       1.25104254
C        0.11790480       0.31317315      -2.18905210        0       0.29358387      -0.58416592       0.23783068      -1.76307117       1.39793696      -1.82328814      -1.76307117       1.39793696      -1.82328814
H        0.50081283      -0.52887988       3.16355896        0       0.01339961       0.14254610       0.22731550      -0.87070508      -0.16614558      -1.24790215      -0.87070508      -0.16614558      -1.24790215
H       -0.99130619       0.37122315       2.57026887        0      -0.01864405       0.28794111      -0.37432648       1.20454808      -0.22326699      -0.29678708       1.20454808      -0.22326699      -0.29678708
H       -0.79898220      -1.19689691       1.93909299        0       0.07867573      -0.13808167       0.14732151       0.15741394      -1.04542668       0.21275615       0.15741394      -1.04542668       0.21275615
H        0.82173383       0.39293513      -3.04121518        0       0.06493475       0.18520010      -0.03584277      -0.18532854      -0.20212865       0.89644231      -0.18532854      -0.20212865       0.89644231
H       -0.51975018      -0.63449883      -2.23208618        0       0.25642326       0.05312722       0.01555753       1.32125773       1.04275063       0.09657489       1.32125773       1.04275063       0.09657489
H       -0.68493521       1.15580308      -2.35394812        0       0.21124824       0.28432625       0.06953715       1.15842359      -1.22965894       0.12221299       1.15842359      -1.22965894       0.12221299
12
Properties=species:S:1:pos:R:3:molID:I:1:momenta:R:3:force_mace:R:3:forces:R:3 Nmols=1 Comp=DMC(1) energy_mace=-590.0405768134669 energy=-590.0405768134669 free_energy=-590.0405768134669 stress="-8.64671734376716e-06 -5.610526943267438e-06 -7.503114117188653e-07 -5.610526943267438e-06 4.7103894809585726e-06 -6.341949557769788e-07 -7.503114117188653e-07 -6.341949557769788e-07 -6.221759989497183e-06" pbc="F F F"
C       -0.06776580      -0.03144692      -0.00256020        0       0.39342878      -0.65333867      -1.24297586       3.01132971       1.54197658      -0.25925380       3.01132971       1.54197658      -0.25925380
O       -1.08730256      -0.53990956      -0.20864896        0      -0.51617261      -0.37104835       2.78044543      -3.44685846      -1.71339380      -0.31586987      -3.44685846      -1.71339380      -0.31586987
O        0.58463587      -0.00142529       1.13882440        0      -0.69888373      -0.92438393       0.27399390       0.73838320      -0.13762178       0.48333053       0.73838320      -0.13762178       0.48333053
O        0.65943192       0.60523252      -0.94016634        0      -0.42619169       0.56035086       0.18923398       0.36646882      -0.23984803       0.50378093       0.36646882      -0.23984803       0.50378093
C       -0.22337184      -0.37823288       2.25112256        0      -0.39270932       0.07361837      -0.50617504       0.46760873       1.10064616       0.11131892       0.46760873       1.10064616       0.11131892
C        0.15667083       0.35788062      -2.21792958        0       0.75181327       1.13477182      -0.99464936      -0.22297818       0.11592799      -1.74600941      -0.22297818       0.11592799      -1.74600941
H        0.43908256      -0.45967248       3.11163933        0       0.43904227       0.06144966       0.03610845       0.01151281       0.17601996      -0.02490344       0.01151281       0.17601996      -0.02490344
H       -0.87973400       0.51235387       2.35384232        0      -0.10199449       0.15835647      -0.04857459      -0.34617306      -1.07726503       0.57134442      -0.34617306      -1.07726503       0.57134442
H       -0.65876835      -1.35184329       2.07131944        0      -0.01337088       0.05325604      -0.05640197      -0.63070788       0.05257042      -0.05844382      -0.63070788       0.05257042      -0.05844382
H        0.95216564       0.45338056      -2.96839518        0       0.41441574       0.07498495      -0.02231249       0.13257504       0.28177832       0.35459249       0.13257504       0.28177832       0.35459249
H       -0.16602515      -0.72107776      -2.31434172        0       0.27245870      -0.03165528      -0.07735522      -0.39792765       1.20264711       0.23944041      -0.39792765       1.20264711       0.23944041
H       -0.58976505       1.17595055      -2.46168151        0      -0.12183605      -0.13636194      -0.33133724       0.31676692      -1.30343792       0.14067265       0.31676692      -1.30343792       0.14067265
12
Properties=species:S:1:pos:R:3:molID:I:1:momenta:R:3:force_mace:R:3:forces:R:3 Nmols=1 Comp=DMC(1) energy_mace=-589.5780704549964 energy=-589.5780704549964 free_energy=-589.5780704549964 stress="6.499655010247007e-06 4.269987444010991e-06 -2.1174882513566423e-06 4.269987444010991e-06 6.854033041319151e-07 1.2285850643933178e-06 -2.1174882513566423e-06 1.2285850643933178e-06 -6.946664940324938e-06" pbc="F F F"
C       -0.03128607      -0.07166962      -0.07721107        0      -0.31985405      -0.53570569      -0.36410191      -2.82270941      -0.91206321       2.72074961      -2.82270941      -0.91206321       2.72074961
O       -1.15176935      -0.58094715      -0.09490145        0      -0.61326252      -0.83592647       0.57898814       1.58028488       0.77450477      -1.93262472       1.58028488       0.77450477      -1.93262472
O        0.57411965      -0.07422089       1.12876490        0      -0.04754478      -1.16804025      -0.44988151       0.95897413       0.70010803      -0.51909593       0.95897413       0.70010803      -0.51909593
O        0.65084310       0.63093485      -0.91753590        0      -0.00329702       0.77529485       0.11288135      -0.72826047      -0.13211567      -1.10614908      -0.72826047      -0.13211567      -1.10614908
C       -0.22526211      -0.34497769       2.22095447        0      -0.56592134       0.10022565      -0.22516231      -2.04724068       0.40951395       1.23280165      -2.04724068       0.40951395       1.23280165
C        0.24815105       0.45775268      -2.30380650        0       1.66119535       1.05494314      -0.66659457      -0.30430807      -1.30968480       0.81112203      -0.30430807      -1.30968480       0.81112203
H        0.41686064      -0.38539556       3.05135956        0       0.04070996      -0.03663665       0.50278978       0.91866908      -0.59304254       0.95331012       0.91866908      -0.59304254       0.95331012
H       -1.00384474       0.39900478       2.54804521        0      -0.20704810       0.02238144       0.17675804       0.73209965       0.40201722      -0.97623890       0.73209965       0.40201722      -0.97623890
H       -0.89385282      -1.19976457       2.11529811        0      -0.13709254       0.16546854       0.04752487       0.54546557      -0.69407944      -0.24667576       0.54546557      -0.69407944      -0.24667576
H        1.16748968       0.86368222      -2.73088365        0       0.10436241       0.59669114       0.14081526      -0.70433314      -0.51259375      -1.07972970      -0.70433314      -0.51259375      -1.07972970
H       -0.08351506      -0.63976383      -2.38605814        0       0.18010762      -0.07721183      -0.11211968       1.27550868       1.02682830      -0.25267854       1.27550868       1.02682830      -0.25267854
H       -0.70443185       0.92078175      -2.59942760        0      -0.09235499      -0.06148389       0.25810254       0.59584978       0.84060713       0.39520923       0.59584978       0.84060713       0.39520923
12
Properties=species:S:1:pos:R:3:molID:I:1:momenta:R:3:force_mace:R:3:forces:R:3 Nmols=1 Comp=DMC(1) energy_mace=-589.6404976165688 energy=-589.6404976165688 free_energy=-589.6404976165688 stress="-3.334829558737564e-07 -1.9365782647584136e-06 -9.878737716832705e-06 -1.9365782647584136e-06 7.135385703007486e-06 -9.433031211424368e-07 -9.878737716832705e-06 -9.433031211424368e-07 -2.4461848041573668e-06" pbc="F F F"
C       -0.10966541      -0.10992440      -0.01042988        0      -0.58298157       0.21540927       1.36513607       1.85641671       1.55444176      -1.01596307       1.85641671       1.55444176      -1.01596307
O       -1.17179627      -0.60104662      -0.14307094        0      -0.53816064       0.33894203      -1.77921363      -1.09530767      -0.43726613      -0.88932363      -1.09530767      -0.43726613      -0.88932363
O        0.59526876      -0.13276523       1.10788885        0       0.50054099      -1.05601779      -0.11051177      -0.70648229      -0.12088111       1.14752257      -0.70648229      -0.12088111       1.14752257
O        0.60765334       0.67822050      -0.92170308        0      -1.03069908       0.45105237       0.14808410       0.30731720      -1.28424515       1.65646212       0.30731720      -1.28424515       1.65646212
C       -0.28745486      -0.35232287       2.26860924        0      -0.58201098      -0.58937644       0.29099320      -0.48736880      -1.61705192      -2.32741091      -0.48736880      -1.61705192      -2.32741091
C        0.37564276       0.52712398      -2.28227429        0       1.15636633       0.55507390       0.58763179      -0.37930594      -0.68792098      -1.08254957      -0.37930594      -0.68792098      -1.08254957
H        0.34722871      -0.54162095       3.05992219        0       0.31938361      -0.25675054       0.25410688       1.33983308       0.40668235       1.79782612       1.33983308       0.40668235       1.79782612
H       -0.93767238       0.51189120       2.32225728        0       0.02270470       0.25717370      -0.31400408      -0.18706837      -0.25358956       0.44996727      -0.18706837      -0.25358956       0.44996727
H       -0.82493752      -1.36913832       2.14875224        0       0.11300281      -0.08761758      -0.01225946       0.19506994       1.62897177      -0.25786597       0.19506994       1.62897177      -0.25786597
H        1.03585029       1.15429222      -2.86460986        0      -0.08495914       0.32760073      -0.20938206       0.20382460       0.76864049       0.37754795       0.20382460       0.76864049       0.37754795
H        0.72267927      -0.50979355      -2.69520795        0       0.63297434       0.15677326      -0.19812827      -1.48086463       1.11279357       1.06538208      -1.48086463       1.11279357       1.06538208
H       -0.65868534       0.93748585      -2.38433817        0       0.07383865      -0.31226289      -0.02245275       0.43393617      -1.07057510      -0.92159495       0.43393617      -1.07057510      -0.92159495
12
Properties=species:S:1:pos:R:3:molID:I:1:momenta:R:3:force_mace:R:3:forces:R:3 Nmols=1 Comp=DMC(1) energy_mace=-589.6344997366067 energy=-589.6344997366067 free_energy=-589.6344997366067 stress="5.454277884922393e-06 4.668710228749416e-06 -1.819684640985483e-07 4.668710228749416e-06 7.2811139713039e-06 4.036366652803143e-06 -1.819684640985483e-07 4.036366652803143e-06 7.896583224357154e-07" pbc="F F F"
C       -0.11705227      -0.05419498       0.00556503        0      -0.12149249       0.44761961      -0.89328326      -1.44674630      -1.79580268      -1.10161361      -1.44674630      -1.79580268      -1.10161361
O       -1.19654401      -0.60229139      -0.23962756        0       0.21208123      -0.12185366      -0.91765052       2.24027597       1.20003289       0.86724794       2.24027597       1.20003289       0.86724794
O        0.61607426      -0.20167702       1.13662818        0      -0.04676614      -0.83337771       0.82106081      -1.53881099       0.25260552      -0.11553269      -1.53881099       0.25260552      -0.11553269
O        0.53345027       0.70312030      -0.86153646        0      -1.11750641       0.79456152       1.77330380       0.58345745       0.44867036      -0.58333412       0.58345745       0.44867036      -0.58333412
C       -0.26452620      -0.38442153       2.28263302        0       0.58186040      -0.78284674      -0.58817671      -2.55591841      -0.70906492      -4.36811026      -2.55591841      -0.70906492      -4.36811026
C        0.44525192       0.56350588      -2.29420870        0       0.45571420       0.24796578      -0.44394710      -0.52542315      -2.56568054       0.26564188      -0.52542315      -2.56568054       0.26564188
H        0.29854653      -0.43705474       3.09636064        0      -0.02033608       0.12023822       0.32431258       2.60908889      -0.83907736       3.44623803       2.60908889      -0.83907736       3.44623803
H       -0.85330367       0.52630718       2.35993597        0      -0.07326979       0.24150092       0.07839944      -0.63590290      -0.04945295       0.01785470      -0.63590290      -0.04945295       0.01785470
H       -0.91657129      -1.32210561       2.05887542        0      -0.22969426       0.25177824      -0.01002131       0.91987766       1.55842357       0.73045396       0.91987766       1.55842357       0.73045396
H        0.95192539       1.45654227      -2.62344320        0      -0.16967262       0.22089164       0.20535036      -0.22572077      -0.22039904      -0.46861092      -0.22572077      -0.22039904      -0.46861092
H        0.93995120      -0.44326012      -2.61788188        0       0.34597786      -0.16354344       0.00695091      -0.13651522       1.75220360       0.65354595      -0.13651522       1.75220360       0.65354595
H       -0.60180285       0.35929548      -2.66163474        0       0.18310409      -0.42293438      -0.35629898       0.71233777       0.96754155       0.65621913       0.71233777       0.96754155       0.65621913
12
Properties=species:S:1:pos:R:3:molID:I:1:momenta:R:3:force_mace:R:3:forces:R:3 Nmols=1 Comp=DMC(1) energy_mace=-589.6159792515496 energy=-589.6159792515496 free_energy=-589.6159792515496 stress="-3.23761419986754e-06 -3.7163039427896494e-06 2.6307904943095303e-06 -3.7163039427896494e-06 -5.2934940596494015e-06 2.519537929909182e-07 2.6307904943095303e-06 2.519537929909182e-07 -1.800290393667707e-06" pbc="F F F"
C       -0.14596126      -0.07050766      -0.05947865        0       0.37397975      -0.06734751      -0.31221101       2.70937375       0.18547468       2.41319849       2.70937375       0.18547468       2.41319849
O       -1.16602883      -0.57775383      -0.27072844        0       0.13084934       0.16369525      -0.36254996      -2.71389941      -1.51848303      -0.51891233      -2.71389941      -1.51848303      -0.51891233
O        0.58462294      -0.24612408       1.14745714        0      -0.58687299      -0.49583637      -0.34148550      -0.46332530       0.10635110      -1.74159211      -0.46332530       0.10635110      -1.74159211
O        0.50019429       0.75894776      -0.80300540        0      -0.36435098       1.22057763      -0.34319480       1.17970055       1.11580103      -1.76236815       1.17970055       1.11580103      -1.76236815
C       -0.24678975      -0.42110462       2.23587707        0      -0.47978948      -0.46239221      -0.62398361      -2.52325896      -1.14298774      -1.46585502      -2.52325896      -1.14298774      -1.46585502
C        0.50084224       0.54443294      -2.24301664        0       0.83068746      -0.16196685       1.69314080      -0.67195472       0.80725464       0.16527339      -0.67195472       0.80725464       0.16527339
H        0.25005592      -0.61098930       3.10525653        0       0.17971458      -0.42745270      -0.05558022       1.81422394      -0.73713825       1.98876674       1.81422394      -0.73713825       1.98876674
H       -0.83700347       0.42873412       2.37234767        0       0.10166762       0.11057658       0.03164812      -0.94053423       2.01819308       0.44780997      -0.94053423       2.01819308       0.44780997
H       -1.06863771      -1.18480428       2.09553789        0      -0.11757614      -0.13981310      -0.05140914       0.99024912      -0.04310990      -0.14522618       0.99024912      -0.04310990      -0.14522618
H        0.62563136       1.54882281      -2.69345476        0      -0.31517275       0.14800052      -0.03709435       0.72953090      -0.45429761       0.35408641       0.72953090      -0.45429761       0.35408641
H        1.35698762      -0.15062368      -2.43050511        0       0.62278967       0.21144904      -0.01489178      -1.20055630       0.49223968      -0.32056269      -1.20055630       0.49223968      -0.32056269
H       -0.54322253       0.31925832      -2.61058814        0      -0.37592609      -0.09949028       0.41761144       1.09045067      -0.82929768       0.58538149       1.09045067      -0.82929768       0.58538149
12
Properties=species:S:1:pos:R:3:molID:I:1:momenta:R:3:force_mace:R:3:forces:R:3 Nmols=1 Comp=DMC(1) energy_mace=-589.3051758935869 energy=-589.3051758935869 free_energy=-589.3051758935869 stress="-3.8068151436225825e-06 1.0265376830454775e-05 -3.660891011847706e-06 1.0265376830454775e-05 -4.075983130403316e-06 3.727892133588584e-07 -3.660891011847706e-06 3.727892133588584e-07 -2.1273109651506585e-05" pbc="F F F"
C       -0.07622476      -0.07093453      -0.01302995        0       0.65905690      -0.11439140       0.61467915      -3.93439758      -0.36654270      -2.84859666      -3.93439758      -0.36654270      -2.84859666
O       -1.18394798      -0.58093508      -0.32006957        0       0.00124955       0.00100920      -0.86484531       3.23458815       1.38553448       0.89652428       3.23458815       1.38553448       0.89652428
O        0.53036289      -0.28022294       1.09252520        0      -1.24075570      -0.47474931      -0.96994437       0.74661554       0.20945400       1.22007829       0.74661554       0.20945400       1.22007829
O        0.54671444       0.83472716      -0.82705353        0       2.01609601       1.06080401       0.74617176       0.27814211      -0.31304960       3.52989647       0.27814211      -0.31304960       3.52989647
C       -0.34105926      -0.44490032       2.24024337        0      -0.68759820      -0.30033478       0.42063714       0.48376536      -1.82624032      -2.43535658       0.48376536      -1.82624032      -2.43535658
C        0.51799323       0.55418031      -2.13860864        0      -0.45546369       0.56832777       1.13642909      -1.58129642       0.48978502      -1.03544140      -1.58129642       0.48978502      -1.03544140
H        0.31886018      -0.89336029       2.87119163        0      -0.16392971       0.00938013      -0.34712435       1.92438418      -0.92523697       2.70425841       1.92438418      -0.92523697       2.70425841
H       -0.64094416       0.49128841       2.54934469        0       0.05086787      -0.14250010       0.22960501      -1.28886261       1.59834374       0.62567211      -1.28886261       1.59834374       0.62567211
H       -1.02192774      -1.26561246       2.01704226        0      -0.21305875      -0.01390111      -0.13783775      -0.94725739       0.66726052      -0.20811243      -0.94725739       0.66726052      -0.20811243
H        0.52415184       1.49411294      -2.63220358        0      -0.32181355       0.13897245      -0.28817401      -1.00548928       0.97482042      -0.76489429      -1.00548928       0.97482042      -0.76489429
H        1.39442121       0.18363202      -2.50171119        0       0.04510798       0.00957509      -0.21463664       2.64800016      -1.79693458      -0.64389230       2.64800016      -1.79693458      -0.64389230
H       -0.28557451      -0.13233419      -2.29478085        0       0.31024128      -0.74219194      -0.32495971      -0.55819222      -0.09719401      -1.04013589      -0.55819222      -0.09719401      -1.04013589
12
Properties=species:S:1:pos:R:3:molID:I:1:momenta:R:3:force_mace:R:3:forces:R:3 Nmols=1 Comp=DMC(1) energy_mace=-589.248181717289 energy=-589.248181717289 free_energy=-589.248181717289 stress="-1.3933415444449369e-05 -2.422127655246497e-06 -5.531682160895028e-06 -2.422127655246497e-06 -1.0010706128332924e-05 4.086190925972871e-07 -5.531682160895028e-06 4.086190925972871e-07 -2.1223850601592915e-06" pbc="F F F"
C       -0.12214686      -0.09976167      -0.06459653        0      -0.04020398       1.03714795      -0.48234922       4.50865561       3.75780850       1.84360313       4.50865561       3.75780850       1.84360313
O       -1.12072544      -0.54608174      -0.38716340        0       0.08806128       0.18990467      -1.79873105      -4.04831372      -1.89367568      -2.02760628      -4.04831372      -1.89367568      -2.02760628
O        0.45833327      -0.30118662       1.11490572        0      -1.01785099       0.18437930       1.56347218       0.40707361       0.38065409       0.87635851       0.40707361       0.38065409       0.87635851
O        0.64281356       0.87683059      -0.73884148        0       0.59436738      -0.36923503       1.60546312      -2.27876728      -2.73938512      -0.80289190      -2.27876728      -2.73938512      -0.80289190
C       -0.36042654      -0.50585551       2.25588405        0       0.24484511      -1.25242408       0.44120841      -0.82737862       0.41081440      -0.96364069      -0.82737862       0.41081440      -0.96364069
C        0.51066716       0.56943182      -2.17368022        0       0.79261124      -0.17471421      -1.24511974       1.28503341       1.72616947       1.96094740       1.28503341       1.72616947       1.96094740
H        0.25473225      -0.95045419       2.95681348        0      -0.65638702      -0.08240614      -0.03705120       1.05297443      -1.30600841       1.17493093       1.05297443      -1.30600841       1.17493093
H       -0.79519727       0.33611657       2.74426987        0       0.00451327      -0.16852889      -0.13885004       0.32058902       1.63061659      -0.13729781       0.32058902       1.63061659      -0.13729781
H       -1.27594165      -1.00891940       2.04135248        0       0.02921999       0.10499210       0.09098094      -0.28134613      -1.22445724      -0.58094345      -0.28134613      -1.22445724      -0.58094345
H        0.08064040       1.37307892      -2.68515753        0      -0.31042096      -0.00358935      -0.11209772       0.01315439       1.74807250      -0.57379880       0.01315439       1.74807250      -0.57379880
H        1.49116762       0.29856612      -2.38882984        0       0.10683096       0.48264832       0.10548563       1.87233640       0.14436057      -1.09379540       1.87233640       0.14436057      -1.09379540
H       -0.03829377      -0.21838544      -2.50823342        0       0.16441371       0.05182537       0.00758869      -2.02401112      -2.63496966       0.32413436      -2.02401112      -2.63496966       0.32413436
12
Properties=species:S:1:pos:R:3:molID:I:1:momenta:R:3:force_mace:R:3:forces:R:3 Nmols=1 Comp=DMC(1) energy_mace=-589.1539992881346 energy=-589.1539992881346 free_energy=-589.1539992881346 stress="-5.893880113172996e-06 2.342551950942698e-06 6.7549559634250015e-06 2.342551950942698e-06 -2.246555216921504e-06 1.418003186728926e-07 6.7549559634250015e-06 1.418003186728926e-07 7.033581727551214e-06" pbc="F F F"
C       -0.08136114      -0.02362017      -0.03142830        0      -0.55501785      -0.16941622       0.25634676      -4.66776295      -3.84422423       0.05116896      -4.66776295      -3.84422423       0.05116896
O       -1.12171863      -0.56770727      -0.52729180        0       0.77850942      -0.05710136      -1.99368267       2.91973097       1.32681232       2.54111886       2.91973097       1.32681232       2.54111886
O        0.44142543      -0.30229865       1.20529033        0       0.49192379       0.03864284       1.20471399       1.10265589      -0.30512871      -1.67794089       1.10265589      -0.30512871      -1.67794089
O        0.59643396       0.78999291      -0.70454356        0      -0.68233104      -1.74629418      -0.76117114       2.85472779       2.34634744      -2.26986920       2.85472779       2.34634744      -2.26986920
C       -0.39077992      -0.55973791       2.29502020        0      -0.43685651      -0.29708676       1.20242995      -0.85719556       1.39262594       0.68388514      -0.85719556       1.39262594       0.68388514
C        0.57947793       0.65285887      -2.23100081        0       0.72798723       1.40797252       0.18627218      -1.05105481      -1.23574030       3.86028802      -1.05105481      -1.23574030       3.86028802
H        0.00371577      -1.09311827       3.18974324        0      -0.42398593       0.39963494      -0.35538551       0.55103610       0.36614063      -1.02997068       0.55103610       0.36614063      -1.02997068
H       -0.61510587       0.49550440       2.57652943        0       0.06253461      -0.26397204      -0.04571436      -0.69130788      -0.83783969       0.67898343      -0.69130788      -0.83783969       0.67898343
H       -1.26349040      -1.10295654       1.97268374        0       0.16157727      -0.16427767      -0.03510043      -0.57760808      -0.07206708      -0.15002981      -0.57760808      -0.07206708      -0.15002981
H        0.09669658       1.48437763      -2.57455986        0      -0.21698160       0.16143113       0.29640002      -2.01069245       1.85641970      -0.84079250      -2.01069245       1.85641970      -0.84079250
H        1.52674141       0.78659550      -2.61221533        0      -0.39986784       0.25814994      -0.15688290       2.27510667      -0.63330683      -0.37256576       2.27510667      -0.63330683      -0.37256576
H        0.07665443      -0.28639158      -2.28119115        0       0.49250843       0.43231686       0.20177411       0.15236430      -0.36003919      -1.47427555       0.15236430      -0.36003919      -1.47427555
12
Properties=species:S:1:pos:R:3:molID:I:1:momenta:R:3:force_mace:R:3:forces:R:3 Nmols=1 Comp=DMC(1) energy_mace=-589.0927554987351 energy=-589.0927554987351 free_energy=-589.0927554987351 stress="9.903122914979703e-07 -4.065405242813707e-06 -2.3004905127080553e-06 -4.065405242813707e-06 8.297457297122591e-07 -1.199624308008781e-06 -2.3004905127080553e-06 -1.199624308008781e-06 1.2883605521179506e-05" pbc="F F F"
C       -0.18996404      -0.09030617      -0.00227654        0       0.25390773      -0.67280752      -0.06016664       5.38735085       1.30244153       0.12622516       5.38735085       1.30244153       0.12622516
O       -1.04572778      -0.60595857      -0.58623910        0      -0.64903780      -1.68807720      -0.74273260      -3.19668197      -1.95327794       0.28152021      -3.19668197      -1.95327794       0.28152021
O        0.49663783      -0.30437204       1.22722064        0       0.39177711      -0.12052781      -0.12019224      -3.89161488       0.45481375      -0.70958746      -3.89161488       0.45481375      -0.70958746
O        0.62271988       0.74155803      -0.77104073        0       2.02588410      -0.05827757      -0.64606002       1.70986249      -0.09184390       2.51126080       1.70986249      -0.09184390       2.51126080
C       -0.45857748      -0.53997092       2.32282194        0      -0.62433771       0.24591586       0.71911432       0.60672956      -0.04793993       1.38412304       0.60672956      -0.04793993       1.38412304
C        0.59328007       0.80280377      -2.15129591        0      -0.87228712       1.43783480       0.76514433      -3.44681939      -2.31707232      -0.59855325      -3.44681939      -2.31707232      -0.59855325
H        0.03941356      -1.15700533       3.18051224        0      -0.05838351       0.16674262      -0.46304667      -0.59177379       1.16373011      -1.74861423      -0.59177379       1.16373011      -1.74861423
H       -0.89060480       0.41774046       2.79376474        0      -0.32196141      -0.27716478       0.00897329       1.12114715      -1.08374403      -1.01928132       1.12114715      -1.08374403      -1.01928132
H       -1.33404218      -1.09254088       1.96529932        0      -0.06458567       0.31125795       0.22264199       0.35029689      -0.05073317      -0.18619828       0.35029689      -0.05073317      -0.18619828
H       -0.17800453       1.52443586      -2.29389704        0       0.06977436      -0.28523007       0.23803964      -0.08012126       1.20845953      -1.09671500      -0.08012126       1.20845953      -1.09671500
H        1.51483566       0.93989774      -2.63387312        0      -0.21770924       0.16102564       0.36308809       1.11032428       0.54135935       0.04268069       1.11032428       0.54135935       0.04268069